# vtk DataFile Version 3.0
vtk output
ASCII
DATASET POLYDATA
POINTS 4848 float
7.616 8.456 0.541289 7.672 8.456 0.538109 7.224 8.232 0.776662 
7.28 8.232 0.698345 7.56 8.232 0.784012 7 8.288 0.700883 
7.056 8.288 0.780459 7.112 8.288 0.728888 7.168 8.288 0.678238 
7.224 8.288 0.676815 7.28 8.288 0.657077 7.336 8.288 0.660511 
7.392 8.288 0.711074 7.448 8.288 0.730108 7.504 8.288 0.677922 
7.56 8.288 0.735405 7.616 8.288 0.718712 6.944 8.344 0.774209 
7 8.344 0.701911 7.056 8.344 0.747836 7.112 8.344 0.672991 
7.168 8.344 0.679173 7.224 8.344 0.69521 7.28 8.344 0.677591 
7.336 8.344 0.697254 7.392 8.344 0.661978 7.448 8.344 0.664574 
7.504 8.344 0.689405 7.56 8.344 0.665904 7.616 8.344 0.628589 
7.672 8.344 0.643454 7 8.4 0.783155 7.056 8.4 0.718098 
7.112 8.4 0.745927 7.168 8.4 0.788188 7.392 8.4 0.777742 
7.448 8.4 0.734916 7.504 8.4 0.689327 7.56 8.4 0.635897 
7.616 8.40912 0.6 7.616 8.4 0.605258 7.672 8.43074 0.6 
7.672 8.4 0.628249 7.728 8.4 0.688721 7.59902 8.456 0.6 
7.56 8.456 0.66239 7.616 8.4747 0.6 7.68933 8.456 0.6 
7.672 8.4764 0.6 7.728 8.456 0.655946 7.504 8.512 0.731621 
7.56 8.512 0.680753 7.616 8.512 0.65211 7.672 8.512 0.644182 
7.728 8.512 0.745939 7.224 8.22547 0.8 7.28 8.20103 0.8 
7.56 8.22752 0.8 6.944 8.232 0.957932 7 8.24997 0.8 
7 8.232 0.826727 7.056 8.27606 0.8 7.056 8.232 0.834797 
7.112 8.26639 0.8 7.112 8.232 0.867602 7.21175 8.232 0.8 
7.168 8.24503 0.8 7.168 8.232 0.833698 7.31268 8.232 0.8 
7.336 8.24558 0.8 7.336 8.232 0.860723 7.392 8.2631 0.8 
7.392 8.232 0.885573 7.448 8.26843 0.8 7.448 8.232 0.895756 
7.54999 8.232 0.8 7.504 8.24337 0.8 7.504 8.232 0.850395 
7.56592 8.232 0.8 7.56 8.232 0.830365 7.616 8.261 0.8 
6.888 8.288 0.972982 6.9518 8.288 0.8 6.944 8.31699 0.8 
6.944 8.288 0.807963 7.63876 8.288 0.8 7.672 8.3043 0.8 
6.93678 8.344 0.8 6.888 8.344 0.919322 6.944 8.3523 0.8 
7.224 8.39102 0.8 7.28 8.38556 0.8 7.336 8.39531 0.8 
7.72789 8.344 0.8 7.728 8.34421 0.8 7.728 8.344 0.800673 
6.99453 8.4 0.8 6.944 8.4 0.84422 7 8.40573 0.8 
7.056 8.42293 0.8 7.112 8.42312 0.8 7.18087 8.4 0.8 
7.168 8.40331 0.8 7.224 8.4 0.869053 7.28 8.4 0.973243 
7.36038 8.4 0.8 7.336 8.4 0.833965 7.392 8.40705 0.8 
7.448 8.43024 0.8 7.504 8.44948 0.8 7.75916 8.4 0.8 
7.784 8.4 0.908659 6.944 8.456 0.895556 7 8.456 0.858047 
7.056 8.456 0.858025 7.112 8.456 0.845482 7.168 8.456 0.920109 
7.448 8.456 0.977915 7.50803 8.456 0.8 7.504 8.46939 0.8 
7.504 8.456 0.813537 7.76919 8.456 0.8 7.784 8.456 0.861026 
7 8.512 0.960121 7.056 8.512 0.863675 7.112 8.512 0.881416 
7.168 8.512 0.962082 7.48485 8.512 0.8 7.448 8.512 0.895506 
7.504 8.54161 0.8 7.56 8.56117 0.8 7.616 8.56533 0.8 
7.672 8.55752 0.8 7.74314 8.512 0.8 7.728 8.52714 0.8 
7.784 8.512 0.960553 7 8.568 0.93792 7.056 8.568 0.946857 
7.112 8.568 0.897298 7.168 8.568 0.902164 7.224 8.568 0.905647 
7.28 8.568 0.994208 7.392 8.568 0.956633 7.448 8.568 0.911371 
7.504 8.568 0.833359 7.56 8.568 0.835684 7.616 8.568 0.823603 
7.672 8.568 0.861932 7.28 8.624 0.908227 7.336 8.624 0.898568 
7.392 8.624 0.918503 7.448 8.624 0.928716 7.504 8.624 0.919926 
7.56 8.624 0.93188 6.944 8.22022 1 7 8.1827 1 
7.056 8.18204 1 7.056 8.176 1.0845 7.112 8.19196 1 
7.168 8.19134 1 7.224 8.19155 1 7.28 8.18687 1 
7.336 8.1968 1 7.392 8.19996 1 7.448 8.20281 1 
7.504 8.20163 1 6.93222 8.232 1 6.888 8.28044 1 
7.28 8.232 1.17229 7.336 8.232 1.148 7.392 8.232 1.1671 
7.448 8.232 1.15447 7.54372 8.232 1 7.504 8.232 1.12406 
7.56 8.2418 1 7.616 8.25672 1 6.88043 8.288 1 
7.6561 8.288 1 7.616 8.288 1.11265 7.672 8.29511 1 
7.728 8.31162 1 6.86541 8.344 1 6.888 8.39729 1 
7.78034 8.344 1 7.784 8.34974 1 6.88864 8.4 1 
6.888 8.4 1.00693 7.224 8.42262 1 7.224 8.4 1.07633 
7.28 8.40437 1 7.28 8.4 1.03498 7.336 8.41796 1 
7.336 8.4 1.10669 7.392 8.42264 1 7.392 8.4 1.13384 
7.80958 8.4 1 6.90432 8.456 1 6.888 8.456 1.06704 
6.944 8.48884 1 7.19771 8.456 1 7.224 8.456 1.14731 
7.44528 8.456 1 7.448 8.456 1.02277 7.82199 8.456 1 
6.98632 8.512 1 6.944 8.512 1.06757 7.18259 8.512 1 
7.224 8.53587 1 7.224 8.512 1.06582 7.28 8.56638 1 
7.41874 8.512 1 7.392 8.55586 1 7.728 8.5595 1 
7.79505 8.512 1 7.784 8.52305 1 6.98262 8.568 1 
6.944 8.568 1.13082 7 8.60086 1 7.056 8.60227 1 
7.112 8.59782 1 7.168 8.60251 1 7.224 8.61095 1 
7.28165 8.568 1 7.37969 8.568 1 7.336 8.59535 1 
7.336 8.568 1.07064 7.616 8.59679 1 7.71185 8.568 1 
7.672 8.60082 1 7.728 8.568 1.0389 6.944 8.624 1.18391 
7 8.624 1.03149 7.056 8.624 1.07254 7.112 8.624 1.06693 
7.168 8.624 1.06151 7.23757 8.624 1 7.224 8.624 1.01963 
7.28 8.6525 1 7.336 8.65923 1 7.392 8.64682 1 
7.448 8.64396 1 7.504 8.64642 1 7.58143 8.624 1 
7.56 8.6448 1 7.616 8.624 1.09473 7.672 8.624 1.16158 
7.224 8.68 1.10674 7.28 8.68 1.04819 7.336 8.68 1.03232 
7.392 8.68 1.05425 7.448 8.68 1.07233 7.504 8.68 1.11679 
7.56 8.68 1.13102 7.28 8.736 1.18744 7.336 8.736 1.1747 
7.056 8.16264 1.2 6.944 8.2034 1.2 7.03411 8.176 1.2 
7 8.18278 1.2 7.08629 8.176 1.2 7.056 8.176 1.24772 
7.112 8.18243 1.2 7.168 8.19803 1.2 7.224 8.21367 1.2 
6.9154 8.232 1.2 6.888 8.27288 1.2 6.944 8.232 1.30216 
7 8.232 1.39978 7.168 8.232 1.34032 7.25316 8.232 1.2 
7.224 8.232 1.26545 7.28 8.24024 1.2 7.336 8.2459 1.2 
7.392 8.23957 1.2 7.448 8.24129 1.2 7.504 8.25016 1.2 
7.56 8.28463 1.2 6.87288 8.288 1.2 6.888 8.288 1.25398 
6.944 8.288 1.3825 7.168 8.288 1.32281 7.224 8.288 1.36887 
7.28 8.288 1.34436 7.336 8.288 1.32861 7.392 8.288 1.32547 
7.448 8.288 1.32349 7.504 8.288 1.32037 7.56411 8.288 1.2 
7.56 8.288 1.21202 7.616 8.30195 1.2 7.672 8.30363 1.2 
7.728 8.32579 1.2 6.84893 8.344 1.2 6.888 8.344 1.37309 
7.168 8.344 1.34231 7.224 8.37171 1.2 7.224 8.344 1.27754 
7.28 8.3852 1.2 7.28 8.344 1.33005 7.336 8.38867 1.2 
7.336 8.344 1.3598 7.392 8.3906 1.2 7.392 8.344 1.32809 
7.448 8.344 1.33286 7.504 8.344 1.36707 7.56 8.344 1.37484 
7.616 8.344 1.36253 7.672 8.344 1.3541 7.75478 8.344 1.2 
7.728 8.344 1.26502 7.784 8.36434 1.2 6.86061 8.4 1.2 
7.17711 8.4 1.2 7.168 8.4 1.34532 7.224 8.44224 1.2 
7.41654 8.4 1.2 7.448 8.42912 1.2 7.448 8.4 1.26014 
7.504 8.4 1.35793 7.728 8.4 1.38575 7.81085 8.4 1.2 
7.784 8.4 1.29589 6.86161 8.456 1.2 6.888 8.48408 1.2 
7.23374 8.456 1.2 7.45602 8.456 1.2 7.448 8.47133 1.2 
7.82078 8.456 1.2 7.784 8.456 1.34567 6.90871 8.512 1.2 
6.888 8.512 1.3898 7.26815 8.512 1.2 7.28 8.52029 1.2 
7.28 8.512 1.2524 7.336 8.532 1.2 7.336 8.512 1.32564 
7.40279 8.512 1.2 7.392 8.51816 1.2 7.392 8.512 1.24527 
7.616 8.512 1.39208 7.81114 8.512 1.2 7.784 8.54194 1.2 
7.784 8.512 1.29694 6.92463 8.568 1.2 7.616 8.568 1.33739 
7.76965 8.568 1.2 7.728 8.60741 1.2 7.728 8.568 1.37333 
6.9395 8.624 1.2 6.944 8.6285 1.2 6.944 8.624 1.25749 
7 8.65923 1.2 7.056 8.64009 1.2 7.112 8.6603 1.2 
7.168 8.6561 1.2 7.616 8.6544 1.2 7.68276 8.624 1.2 
7.672 8.63476 1.2 7.672 8.624 1.23983 7.19789 8.68 1.2 
7.168 8.68 1.29853 7.224 8.70611 1.2 7.392 8.7242 1.2 
7.448 8.71575 1.2 7.504 8.7033 1.2 7.58078 8.68 1.2 
7.56 8.69764 1.2 7.56 8.68 1.30437 7.27648 8.736 1.2 
7.28 8.73952 1.2 7.34541 8.736 1.2 7.336 8.74308 1.2 
7.392 8.736 1.26011 7.448 8.736 1.31621 7.056 8.20975 1.4 
7.112 8.21503 1.4 7.00033 8.232 1.4 7 8.23211 1.4 
7.056 8.232 1.47947 7.13605 8.232 1.4 7.112 8.232 1.46059 
6.95327 8.288 1.4 6.944 8.29658 1.4 7 8.288 1.53333 
7.056 8.288 1.49292 7.11876 8.288 1.4 7.112 8.288 1.41218 
6.89588 8.344 1.4 6.888 8.36732 1.4 6.944 8.344 1.53732 
7 8.344 1.56329 7.056 8.344 1.58259 7.15199 8.344 1.4 
7.112 8.344 1.49141 7.56 8.36249 1.4 7.616 8.36159 1.4 
7.672 8.36656 1.4 6.86926 8.4 1.4 6.888 8.4 1.46693 
6.944 8.4 1.58991 7.16524 8.4 1.4 7.112 8.4 1.56087 
7.168 8.401 1.4 7.224 8.42247 1.4 7.52556 8.4 1.4 
7.504 8.45591 1.4 7.56 8.4 1.47871 7.616 8.4 1.51013 
7.71753 8.4 1.4 7.672 8.4 1.50655 7.728 8.40797 1.4 
6.86329 8.456 1.4 6.888 8.456 1.48825 7.25753 8.456 1.4 
7.224 8.456 1.56452 7.28 8.48368 1.4 7.336 8.49118 1.4 
7.392 8.48613 1.4 7.50396 8.456 1.4 7.448 8.47911 1.4 
7.504 8.456 1.40013 7.56 8.456 1.46271 7.616 8.5036 1.4 
7.616 8.456 1.47299 7.672 8.456 1.46341 7.76658 8.456 1.4 
7.728 8.456 1.52248 6.88545 8.512 1.4 6.888 8.51455 1.4 
6.888 8.512 1.4091 6.944 8.512 1.5907 7.336 8.512 1.50277 
7.392 8.512 1.49239 7.448 8.512 1.50693 7.504 8.512 1.47138 
7.59203 8.512 1.4 7.56 8.512 1.42386 7.62599 8.512 1.4 
7.672 8.512 1.46364 7.75376 8.512 1.4 7.728 8.55118 1.4 
7.728 8.512 1.492 6.91334 8.568 1.4 6.944 8.61549 1.4 
6.944 8.568 1.5095 7 8.568 1.56929 7.056 8.568 1.54235 
7.448 8.568 1.53132 7.504 8.568 1.51637 7.59896 8.568 1.4 
7.56 8.568 1.47443 7.62792 8.568 1.4 7.616 8.60639 1.4 
7.71254 8.568 1.4 7.672 8.59604 1.4 7.672 8.568 1.4979 
6.95662 8.624 1.4 7 8.64792 1.4 7 8.624 1.48544 
7.056 8.64352 1.4 7.056 8.624 1.46971 7.112 8.65213 1.4 
7.112 8.624 1.50045 7.168 8.624 1.59725 7.448 8.624 1.59468 
7.504 8.624 1.55564 7.56 8.66555 1.4 7.56 8.624 1.50959 
7.6222 8.624 1.4 7.616 8.63354 1.4 7.616 8.624 1.42127 
7.13959 8.68 1.4 7.168 8.70841 1.4 7.168 8.68 1.50147 
7.224 8.72818 1.4 7.224 8.68 1.53837 7.54688 8.68 1.4 
7.504 8.71245 1.4 7.504 8.68 1.51589 7.23244 8.736 1.4 
7.28 8.76668 1.4 7.28 8.736 1.54671 7.336 8.77136 1.4 
7.392 8.77102 1.4 7.47146 8.736 1.4 7.448 8.75946 1.4 
7.448 8.736 1.53949 8.624 9.464 1.5398 8.68 9.464 1.55309 
8.68 9.576 1.57404 7 8.37436 1.6 7.056 8.36441 1.6 
6.95673 8.4 1.6 6.944 8.41308 1.6 7 8.4 1.67048 
7.08986 8.4 1.6 7.056 8.4 1.65065 7.112 8.41388 1.6 
7.168 8.44818 1.6 6.92472 8.456 1.6 6.944 8.50258 1.6 
6.944 8.456 1.66887 7 8.456 1.66025 7.056 8.456 1.71269 
7.112 8.456 1.68048 7.18677 8.456 1.6 7.168 8.456 1.62792 
7.224 8.47098 1.6 7.28 8.50554 1.6 6.96328 8.512 1.6 
7 8.5342 1.6 7 8.512 1.63363 7.056 8.51912 1.6 
7.056 8.512 1.62351 7.112 8.512 1.68643 7.168 8.512 1.70938 
7.224 8.512 1.69367 7.29058 8.512 1.6 7.28 8.512 1.62307 
7.336 8.53124 1.6 7.392 8.55394 1.6 7.0976 8.568 1.6 
7.112 8.58148 1.6 7.112 8.568 1.64813 7.168 8.62263 1.6 
7.168 8.568 1.67666 7.224 8.568 1.72098 7.28 8.568 1.71353 
7.336 8.568 1.70336 7.40606 8.568 1.6 7.392 8.568 1.65023 
[...]
POINT_DATA 4848
SCALARS scalars float
LOOKUP_TABLE default
0.16667 0.16667 0.16667 0.16667 0.16667 0.16667 0.16667 0.16667 0.16667 
0.16667 0.16667 0.16667 0.16667 0.16667 0.16667 0.16667 0.16667 0.16667 
0.16667 0.16667 0.16667 0.16667 0.16667 0.16667 0.16667 0.16667 0.16667 
0.16667 0.16667 0.16667 0.16667 0.16667 0.16667 0.16667 0.16667 0.16667 
0.16667 0.16667 0.16667 0.16667 0.16667 0.16667 0.16667 0.16667 0.16667 
0.16667 0.16667 0.16667 0.16667 0.16667 0.16667 0.16667 0.16667 0.16667 
0.16667 0.16667 0.16667 0.16667 0.16667 0.16667 0.16667 0.16667 0.16667 
0.16667 0.16667 0.16667 0.16667 0.16667 0.16667 0.16667 0.16667 0.16667 
0.16667 0.16667 0.16667 0.16667 0.16667 0.16667 0.16667 0.16667 0.16667 
0.16667 0.16667 0.16667 0.16667 0.16667 0.16667 0.16667 0.16667 0.16667 
0.16667 0.16667 0.16667 0.16667 0.16667 0.16667 0.16667 0.16667 0.16667 
0.16667 0.16667 0.16667 0.16667 0.16667 0.16667 0.16667 0.16667 0.16667 
0.16667 0.16667 0.16667 0.16667 0.16667 0.16667 0.16667 0.16667 0.16667 
0.16667 0.16667 0.16667 0.16667 0.16667 0.16667 0.16667 0.16667 0.16667 
0.16667 0.16667 0.16667 0.16667 0.16667 0.16667 0.16667 0.16667 0.16667 
0.16667 0.16667 0.16667 0.16667 0.16667 0.16667 0.16667 0.16667 0.16667 
0.16667 0.16667 0.16667 0.16667 0.16667 0.16667 0.16667 0.16667 0.16667 
0.16667 0.16667 0.16667 0.16667 0.16667 0.16667 0.16667 0.16667 0.16667 
0.16667 0.16667 0.16667 0.16667 0.16667 0.16667 0.16667 0.16667 0.16667 
0.16667 0.16667 0.16667 0.16667 0.16667 0.16667 0.16667 0.16667 0.16667 
0.16667 0.16667 0.16667 0.16667 0.16667 0.16667 0.16667 0.16667 0.16667 
0.16667 0.16667 0.16667 0.16667 0.16667 0.16667 0.16667 0.16667 0.16667 
0.16667 0.16667 0.16667 0.16667 0.16667 0.16667 0.16667 0.16667 0.16667 
0.16667 0.16667 0.16667 0.16667 0.16667 0.16667 0.16667 0.16667 0.16667 
0.16667 0.16667 0.16667 0.16667 0.16667 0.16667 0.16667 0.16667 0.16667 
0.16667 0.16667 0.16667 0.16667 0.16667 0.16667 0.16667 0.16667 0.16667 
0.16667 0.16667 0.16667 0.16667 0.16667 0.16667 0.16667 0.16667 0.16667 
0.16667 0.16667 0.16667 0.16667 0.16667 0.16667 0.16667 0.16667 0.16667 
0.16667 0.16667 0.16667 0.16667 0.16667 0.16667 0.16667 0.16667 0.16667 
0.16667 0.16667 0.16667 0.16667 0.16667 0.16667 0.16667 0.16667 0.16667 
0.16667 0.16667 0.16667 0.16667 0.16667 0.16667 0.16667 0.16667 0.16667 
0.16667 0.16667 0.16667 0.16667 0.16667 0.16667 0.16667 0.16667 0.16667 
0.16667 0.16667 0.16667 0.16667 0.16667 0.16667 0.16667 0.16667 0.16667 
0.16667 0.16667 0.16667 0.16667 0.16667 0.16667 0.16667 0.16667 0.16667 
0.16667 0.16667 0.16667 0.16667 0.16667 0.16667 0.16667 0.16667 0.16667 
0.16667 0.16667 0.16667 0.16667 0.16667 0.16667 0.16667 0.16667 0.16667 
0.16667 0.16667 0.16667 0.16667 0.16667 0.16667 0.16667 0.16667 0.16667 
0.16667 0.16667 0.16667 0.16667 0.16667 0.16667 0.16667 0.16667 0.16667 
0.16667 0.16667 0.16667 0.16667 0.16667 0.16667 0.16667 0.16667 0.16667 
0.16667 0.16667 0.16667 0.16667 0.16667 0.16667 0.16667 0.16667 0.16667 
0.16667 0.16667 0.16667 0.16667 0.16667 0.16667 0.16667 0.16667 0.16667 
0.16667 0.16667 0.16667 0.16667 0.16667 0.16667 0.16667 0.16667 0.16667 
0.16667 0.16667 0.16667 0.16667 0.16667 0.16667 0.16667 0.16667 0.16667 
0.16667 0.16667 0.16667 0.16667 0.16667 0.16667 0.16667 0.16667 0.16667 
0.16667 0.16667 0.16667 0.16667 0.16667 0.16667 0.16667 0.16667 0.16667 
0.16667 0.16667 0.16667 0.16667 0.16667 0.16667 0.16667 0.16667 0.16667 
0.16667 0.16667 0.16667 0.16667 0.16667 0.16667 0.16667 0.16667 0.16667 
0.16667 0.16667 0.16667 0.16667 0.16667 0.16667 0.16667 0.16667 0.16667 
0.16667 0.16667 0.16667 0.16667 0.16667 0.16667 0.16667 0.16667 0.16667 
0.16667 0.16667 0.16667 0.16667 0.16667 0.16667 0.16667 0.16667 0.16667 
0.16667 0.16667 0.16667 0.16667 0.16667 0.16667 0.16667 0.16667 0.16667 
0.16667 0.16667 0.16667 0.16667 0.16667 0.16667 0.16667 0.16667 0.16667 
0.16667 0.16667 0.16667 0.16667 0.16667 0.16667 0.16667 0.16667 0.16667 
0.16667 0.16667 0.16667 0.16667 0.16667 0.16667 0.16667 0.16667 0.16667 
0.16667 0.16667 0.16667 0.16667 0.16667 0.16667 0.16667 0.16667 0.16667 
0.16667 0.16667 0.16667 0.16667 0.16667 0.16667 0.16667 0.16667 0.16667 
0.16667 0.16667 0.16667 0.16667 0.16667 0.16667 0.16667 0.16667 0.16667 
0.16667 0.16667 0.16667 0.16667 0.16667 0.16667 0.16667 0.16667 0.16667 
0.16667 0.16667 0.16667 0.16667 0.16667 0.16667 0.16667 0.16667 0.16667 
0.16667 0.16667 0.16667 0.16667 0.16667 0.16667 0.16667 0.16667 0.16667 
0.16667 0.16667 0.16667 0.16667 0.16667 0.16667 0.16667 0.16667 0.16667 
0.16667 0.16667 0.16667 0.16667 0.16667 0.16667 0.16667 0.16667 0.16667 
0.16667 0.16667 0.16667 0.16667 0.16667 0.16667 0.16667 0.16667 0.16667 
0.16667 0.16667 0.16667 0.16667 0.16667 0.16667 0.16667 0.16667 0.16667 
0.16667 0.16667 0.16667 0.16667 0.16667 0.16667 0.16667 0.16667 0.16667 
0.16667 0.16667 0.16667 0.16667 0.16667 0.16667 0.16667 0.16667 0.16667 
0.16667 0.16667 0.16667 0.16667 0.16667 0.16667 0.16667 0.16667 0.16667 
0.16667 0.16667 0.16667 0.16667 0.16667 0.16667 0.16667 0.16667 0.16667 
0.16667 0.16667 0.16667 0.16667 0.16667 0.16667 0.16667 0.16667 0.16667 
0.16667 0.16667 0.16667 0.16667 0.16667 0.16667 0.16667 0.16667 0.16667 
0.16667 0.16667 0.16667 0.16667 0.16667 0.16667 0.16667 0.16667 0.16667 
0.16667 0.16667 0.16667 0.16667 0.16667 0.16667 0.16667 0.16667 0.16667 
0.16667 0.16667 0.16667 0.16667 0.16667 0.16667 0.16667 0.16667 0.16667 
0.16667 0.16667 0.16667 0.16667 0.16667 0.16667 0.16667 0.16667 0.16667 
0.16667 0.16667 0.16667 0.16667 0.16667 0.16667 0.16667 0.16667 0.16667 
0.16667 0.16667 0.16667 0.16667 0.16667 0.16667 0.16667 0.16667 0.16667 
0.16667 0.16667 0.16667 0.16667 0.16667 0.16667 0.16667 0.16667 0.16667 
0.16667 0.16667 0.16667 0.16667 0.16667 0.16667 0.16667 0.16667 0.16667 
0.16667 0.16667 0.16667 0.16667 0.16667 0.16667 0.16667 0.16667 0.16667 
0.16667 0.16667 0.16667 0.16667 0.16667 0.16667 0.16667 0.16667 0.16667 
0.16667 0.16667 0.16667 0.16667 0.16667 0.16667 0.16667 0.16667 0.16667 
0.16667 0.16667 0.16667 0.16667 0.16667 0.16667 0.16667 0.16667 0.16667 
0.16667 0.16667 0.16667 0.16667 0.16667 0.16667 0.16667 0.16667 0.16667 
0.16667 0.16667 0.16667 0.16667 0.16667 0.16667 0.16667 0.16667 0.16667 
0.16667 0.16667 0.16667 0.16667 0.16667 0.16667 0.16667 0.16667 0.16667 
0.16667 0.16667 0.16667 0.16667 0.16667 0.16667 0.16667 0.16667 0.16667 
0.16667 0.16667 0.16667 0.16667 0.16667 0.16667 0.16667 0.16667 0.16667 
0.16667 0.16667 0.16667 0.16667 0.16667 0.16667 0.16667 0.16667 0.16667 
0.16667 0.16667 0.16667 0.16667 0.16667 0.16667 0.16667 0.16667 0.16667 
0.16667 0.16667 0.16667 0.16667 0.16667 0.16667 0.16667 0.16667 0.16667 
0.16667 0.16667 0.16667 0.16667 0.16667 0.16667 0.16667 0.16667 0.16667 
0.16667 0.16667 0.16667 0.16667 0.16667 0.16667 0.16667 0.16667 0.16667 
0.16667 0.16667 0.16667 0.16667 0.16667 0.16667 0.16667 0.16667 0.16667 
0.16667 0.16667 0.16667 0.16667 0.16667 0.16667 0.16667 0.16667 0.16667 
0.16667 0.16667 0.16667 0.16667 0.16667 0.16667 0.16667 0.16667 0.16667 
0.16667 0.16667 0.16667 0.16667 0.16667 0.16667 0.16667 0.16667 0.16667 
0.16667 0.16667 0.16667 0.16667 0.16667 0.16667 0.16667 0.16667 0.16667 
0.16667 0.16667 0.16667 0.16667 0.16667 0.16667 0.16667 0.16667 0.16667 
0.16667 0.16667 0.16667 0.16667 0.16667 0.16667 0.16667 0.16667 0.16667 
0.16667 0.16667 0.16667 0.16667 0.16667 0.16667 0.16667 0.16667 0.16667 
0.16667 0.16667 0.16667 0.16667 0.16667 0.16667 0.16667 0.16667 0.16667 
0.16667 0.16667 0.16667 0.16667 0.16667 0.16667 0.16667 0.16667 0.16667 
0.16667 0.16667 0.16667 0.16667 0.16667 0.16667 0.16667 0.16667 0.16667 
0.16667 0.16667 0.16667 0.16667 0.16667 0.16667 0.16667 0.16667 0.16667 
0.16667 0.16667 0.16667 0.16667 0.16667 0.16667 0.16667 0.16667 0.16667 
0.16667 0.16667 0.16667 0.16667 0.16667 0.16667 0.16667 0.16667 0.16667 
0.16667 0.16667 0.16667 0.16667 0.16667 0.16667 0.16667 0.16667 0.16667 
0.16667 0.16667 0.16667 0.16667 0.16667 0.16667 0.16667 0.16667 0.16667 
0.16667 0.16667 0.16667 0.16667 0.16667 0.16667 0.16667 0.16667 0.16667 
0.16667 0.16667 0.16667 0.16667 0.16667 0.16667 0.16667 0.16667 0.16667 
0.16667 0.16667 0.16667 0.16667 0.16667 0.16667 0.16667 0.16667 0.16667 
0.16667 0.16667 0.16667 0.16667 0.16667 0.16667 0.16667 0.16667 0.16667 
0.16667 0.16667 0.16667 0.16667 0.16667 0.16667 0.16667 0.16667 0.16667 
0.16667 0.16667 0.16667 0.16667 0.16667 0.16667 0.16667 0.16667 0.16667 
0.16667 0.16667 0.16667 0.16667 0.16667 0.16667 0.16667 0.16667 0.16667 
0.16667 0.16667 0.16667 0.16667 0.16667 0.16667 0.16667 0.16667 0.16667 
0.16667 0.16667 0.16667 0.16667 0.16667 0.16667 0.16667 0.16667 0.16667 
0.16667 0.16667 0.16667 0.16667 0.16667 0.16667 0.16667 0.16667 0.16667 
0.16667 0.16667 0.16667 0.16667 0.16667 0.16667 0.16667 0.16667 0.16667 
0.16667 0.16667 0.16667 0.16667 0.16667 0.16667 0.16667 0.16667 0.16667 
0.16667 0.16667 0.16667 0.16667 0.16667 0.16667 0.16667 0.16667 0.16667 
0.16667 0.16667 0.16667 0.16667 0.16667 0.16667 0.16667 0.16667 0.16667 
0.16667 0.16667 0.16667 0.16667 0.16667 0.16667 0.16667 0.16667 0.16667 
0.16667 0.16667 0.16667 0.16667 0.16667 0.16667 0.16667 0.16667 0.16667 
0.16667 0.16667 0.16667 0.16667 0.16667 0.16667 0.16667 0.16667 0.16667 
0.16667 0.16667 0.16667 0.16667 0.16667 0.16667 0.16667 0.16667 0.16667 
0.16667 0.16667 0.16667 0.16667 0.16667 0.16667 0.16667 0.16667 0.16667 
0.16667 0.16667 0.16667 0.16667 0.16667 0.16667 0.16667 0.16667 0.16667 
0.16667 0.16667 0.16667 0.16667 0.16667 0.16667 0.16667 0.16667 0.16667 
0.16667 0.16667 0.16667 0.16667 0.16667 0.16667 0.16667 0.16667 0.16667 
0.16667 0.16667 0.16667 0.16667 0.16667 0.16667 0.16667 0.16667 0.16667 
0.16667 0.16667 0.16667 0.16667 0.16667 0.16667 0.16667 0.16667 0.16667 
0.16667 0.16667 0.16667 0.16667 0.16667 0.16667 0.16667 0.16667 0.16667 
0.16667 0.16667 0.16667 0.16667 0.16667 0.16667 0.16667 0.16667 0.16667 
0.16667 0.16667 0.16667 0.16667 0.16667 0.16667 0.16667 0.16667 0.16667 
0.16667 0.16667 0.16667 0.16667 0.16667 0.16667 0.16667 0.16667 0.16667 
0.16667 0.16667 0.16667 0.16667 0.16667 0.16667 0.16667 0.16667 0.16667 
0.16667 0.16667 0.16667 0.16667 0.16667 0.16667 0.16667 0.16667 0.16667 
0.16667 0.16667 0.16667 0.16667 0.16667 0.16667 0.16667 0.16667 0.16667 
0.16667 0.16667 0.16667 0.16667 0.16667 0.16667 0.16667 0.16667 0.16667 
0.16667 0.16667 0.16667 0.16667 0.16667 0.16667 0.16667 0.16667 0.16667 
0.16667 0.16667 0.16667 0.16667 0.16667 0.16667 0.16667 0.16667 0.16667 
0.16667 0.16667 0.16667 0.16667 0.16667 0.16667 0.16667 0.16667 0.16667 
0.16667 0.16667 0.16667 0.16667 0.16667 0.16667 0.16667 0.16667 0.16667 
0.16667 0.16667 0.16667 0.16667 0.16667 0.16667 0.16667 0.16667 0.16667 
0.16667 0.16667 0.16667 0.16667 0.16667 0.16667 0.16667 0.16667 0.16667 
0.16667 0.16667 0.16667 0.16667 0.16667 0.16667 0.16667 0.16667 0.16667 
0.16667 0.16667 0.16667 0.16667 0.16667 0.16667 0.16667 0.16667 0.16667 
0.16667 0.16667 0.16667 0.16667 0.16667 0.16667 0.16667 0.16667 0.16667 
0.16667 0.16667 0.16667 0.16667 0.16667 0.16667 0.16667 0.16667 0.16667 
0.16667 0.16667 0.16667 0.16667 0.16667 0.16667 0.16667 0.16667 0.16667 
0.16667 0.16667 0.16667 0.16667 0.16667 0.16667 0.16667 0.16667 0.16667 
0.16667 0.16667 0.16667 0.16667 0.16667 0.16667 0.16667 0.16667 0.16667 
0.16667 0.16667 0.16667 0.16667 0.16667 0.16667 0.16667 0.16667 0.16667 
0.16667 0.16667 0.16667 0.16667 0.16667 0.16667 0.16667 0.16667 0.16667 
0.16667 0.16667 0.16667 0.16667 0.16667 0.16667 0.16667 0.16667 0.16667 
0.16667 0.16667 0.16667 0.16667 0.16667 0.16667 0.16667 0.16667 0.16667 
0.16667 0.16667 0.16667 0.16667 0.16667 0.16667 0.16667 0.16667 0.16667 
0.16667 0.16667 0.16667 0.16667 0.16667 0.16667 0.16667 0.16667 0.16667 
0.16667 0.16667 0.16667 0.16667 0.16667 0.16667 0.16667 0.16667 0.16667 
0.16667 0.16667 0.16667 0.16667 0.16667 0.16667 0.16667 0.16667 0.16667 
0.16667 0.16667 0.16667 0.16667 0.16667 0.16667 0.16667 0.16667 0.16667 
0.16667 0.16667 0.16667 0.16667 0.16667 0.16667 0.16667 0.16667 0.16667 
0.16667 0.16667 0.16667 0.16667 0.16667 0.16667 0.16667 0.16667 0.16667 
0.16667 0.16667 0.16667 0.16667 0.16667 0.16667 0.16667 0.16667 0.16667 
0.16667 0.16667 0.16667 0.16667 0.16667 0.16667 0.16667 0.16667 0.16667 
0.16667 0.16667 0.16667 0.16667 0.16667 0.16667 0.16667 0.16667 0.16667 
0.16667 0.16667 0.16667 0.16667 0.16667 0.16667 0.16667 0.16667 0.16667 
0.16667 0.16667 0.16667 0.16667 0.16667 0.16667 0.16667 0.16667 0.16667 
0.16667 0.16667 0.16667 0.16667 0.16667 0.16667 0.16667 0.16667 0.16667 
0.16667 0.16667 0.16667 0.16667 0.16667 0.16667 0.16667 0.16667 0.16667 
0.16667 0.16667 0.16667 0.16667 0.16667 0.16667 0.16667 0.16667 0.16667 
0.16667 0.16667 0.16667 0.16667 0.16667 0.16667 0.16667 0.16667 0.16667 
0.16667 0.16667 0.16667 0.16667 0.16667 0.16667 0.16667 0.16667 0.16667 
0.16667 0.16667 0.16667 0.16667 0.16667 0.16667 0.16667 0.16667 0.16667 
0.16667 0.16667 0.16667 0.16667 0.16667 0.16667 0.16667 0.16667 0.16667 
0.16667 0.16667 0.16667 0.16667 0.16667 0.16667 0.16667 0.16667 0.16667 
0.16667 0.16667 0.16667 0.16667 0.16667 0.16667 0.16667 0.16667 0.16667 
0.16667 0.16667 0.16667 0.16667 0.16667 0.16667 0.16667 0.16667 0.16667 
0.16667 0.16667 0.16667 0.16667 0.16667 0.16667 0.16667 0.16667 0.16667 
0.16667 0.16667 0.16667 0.16667 0.16667 0.16667 0.16667 0.16667 0.16667 
0.16667 0.16667 0.16667 0.16667 0.16667 0.16667 0.16667 0.16667 0.16667 
0.16667 0.16667 0.16667 0.16667 0.16667 0.16667 0.16667 0.16667 0.16667 
0.16667 0.16667 0.16667 0.16667 0.16667 0.16667 0.16667 0.16667 0.16667 
0.16667 0.16667 0.16667 0.16667 0.16667 0.16667 0.16667 0.16667 0.16667 
0.16667 0.16667 0.16667 0.16667 0.16667 0.16667 0.16667 0.16667 0.16667 
0.16667 0.16667 0.16667 0.16667 0.16667 0.16667 0.16667 0.16667 0.16667 
0.16667 0.16667 0.16667 0.16667 0.16667 0.16667 0.16667 0.16667 0.16667 
0.16667 0.16667 0.16667 0.16667 0.16667 0.16667 0.16667 0.16667 0.16667 
0.16667 0.16667 0.16667 0.16667 0.16667 0.16667 0.16667 0.16667 0.16667 
0.16667 0.16667 0.16667 0.16667 0.16667 0.16667 0.16667 0.16667 0.16667 
0.16667 0.16667 0.16667 0.16667 0.16667 0.16667 0.16667 0.16667 0.16667 
0.16667 0.16667 0.16667 0.16667 0.16667 0.16667 0.16667 0.16667 0.16667 
0.16667 0.16667 0.16667 0.16667 0.16667 0.16667 0.16667 0.16667 0.16667 
0.16667 0.16667 0.16667 0.16667 0.16667 0.16667 0.16667 0.16667 0.16667 
0.16667 0.16667 0.16667 0.16667 0.16667 0.16667 0.16667 0.16667 0.16667 
0.16667 0.16667 0.16667 0.16667 0.16667 0.16667 0.16667 0.16667 0.16667 
0.16667 0.16667 0.16667 0.16667 0.16667 0.16667 0.16667 0.16667 0.16667 
0.16667 0.16667 0.16667 0.16667 0.16667 0.16667 0.16667 0.16667 0.16667 
0.16667 0.16667 0.16667 0.16667 0.16667 0.16667 0.16667 0.16667 0.16667 
0.16667 0.16667 0.16667 0.16667 0.16667 0.16667 0.16667 0.16667 0.16667 
0.16667 0.16667 0.16667 0.16667 0.16667 0.16667 0.16667 0.16667 0.16667 
0.16667 0.16667 0.16667 0.16667 0.16667 0.16667 0.16667 0.16667 0.16667 
0.16667 0.16667 0.16667 0.16667 0.16667 0.16667 0.16667 0.16667 0.16667 
0.16667 0.16667 0.16667 0.16667 0.16667 0.16667 0.16667 0.16667 0.16667 
0.16667 0.16667 0.16667 0.16667 0.16667 0.16667 0.16667 0.16667 0.16667 
0.16667 0.16667 0.16667 0.16667 0.16667 0.16667 0.16667 0.16667 0.16667 
0.16667 0.16667 0.16667 0.16667 0.16667 0.16667 0.16667 0.16667 0.16667 
0.16667 0.16667 0.16667 0.16667 0.16667 0.16667 0.16667 0.16667 0.16667 
0.16667 0.16667 0.16667 0.16667 0.16667 0.16667 0.16667 0.16667 0.16667 
0.16667 0.16667 0.16667 0.16667 0.16667 0.16667 0.16667 0.16667 0.16667 
0.16667 0.16667 0.16667 0.16667 0.16667 0.16667 0.16667 0.16667 0.16667 
0.16667 0.16667 0.16667 0.16667 0.16667 0.16667 0.16667 0.16667 0.16667 
0.16667 0.16667 0.16667 0.16667 0.16667 0.16667 0.16667 0.16667 0.16667 
0.16667 0.16667 0.16667 0.16667 0.16667 0.16667 0.16667 0.16667 0.16667 
0.16667 0.16667 0.16667 0.16667 0.16667 0.16667 0.16667 0.16667 0.16667 
0.16667 0.16667 0.16667 0.16667 0.16667 0.16667 0.16667 0.16667 0.16667 
0.16667 0.16667 0.16667 0.16667 0.16667 0.16667 0.16667 0.16667 0.16667 
0.16667 0.16667 0.16667 0.16667 0.16667 0.16667 0.16667 0.16667 0.16667 
0.16667 0.16667 0.16667 0.16667 0.16667 0.16667 0.16667 0.16667 0.16667 
0.16667 0.16667 0.16667 0.16667 0.16667 0.16667 0.16667 0.16667 0.16667 
0.16667 0.16667 0.16667 0.16667 0.16667 0.16667 0.16667 0.16667 0.16667 
0.16667 0.16667 0.16667 0.16667 0.16667 0.16667 0.16667 0.16667 0.16667 
0.16667 0.16667 0.16667 0.16667 0.16667 0.16667 0.16667 0.16667 0.16667 
0.16667 0.16667 0.16667 0.16667 0.16667 0.16667 0.16667 0.16667 0.16667 
0.16667 0.16667 0.16667 0.16667 0.16667 0.16667 0.16667 0.16667 0.16667 
0.16667 0.16667 0.16667 0.16667 0.16667 0.16667 0.16667 0.16667 0.16667 
0.16667 0.16667 0.16667 0.16667 0.16667 0.16667 0.16667 0.16667 0.16667 
0.16667 0.16667 0.16667 0.16667 0.16667 0.16667 0.16667 0.16667 0.16667 
0.16667 0.16667 0.16667 0.16667 0.16667 0.16667 0.16667 0.16667 0.16667 
0.16667 0.16667 0.16667 0.16667 0.16667 0.16667 0.16667 0.16667 0.16667 
0.16667 0.16667 0.16667 0.16667 0.16667 0.16667 0.16667 0.16667 0.16667 
0.16667 0.16667 0.16667 0.16667 0.16667 0.16667 0.16667 0.16667 0.16667 
0.16667 0.16667 0.16667 0.16667 0.16667 0.16667 0.16667 0.16667 0.16667 
0.16667 0.16667 0.16667 0.16667 0.16667 0.16667 0.16667 0.16667 0.16667 
0.16667 0.16667 0.16667 0.16667 0.16667 0.16667 0.16667 0.16667 0.16667 
0.16667 0.16667 0.16667 0.16667 0.16667 0.16667 0.16667 0.16667 0.16667 
0.16667 0.16667 0.16667 0.16667 0.16667 0.16667 0.16667 0.16667 0.16667 
0.16667 0.16667 0.16667 0.16667 0.16667 0.16667 0.16667 0.16667 0.16667 
0.16667 0.16667 0.16667 0.16667 0.16667 0.16667 0.16667 0.16667 0.16667 
0.16667 0.16667 0.16667 0.16667 0.16667 0.16667 0.16667 0.16667 0.16667 
0.16667 0.16667 0.16667 0.16667 0.16667 0.16667 0.16667 0.16667 0.16667 
0.16667 0.16667 0.16667 0.16667 0.16667 0.16667 0.16667 0.16667 0.16667 
0.16667 0.16667 0.16667 0.16667 0.16667 0.16667 0.16667 0.16667 0.16667 
0.16667 0.16667 0.16667 0.16667 0.16667 0.16667 0.16667 0.16667 0.16667 
0.16667 0.16667 0.16667 0.16667 0.16667 0.16667 0.16667 0.16667 0.16667 
0.16667 0.16667 0.16667 0.16667 0.16667 0.16667 0.16667 0.16667 0.16667 
0.16667 0.16667 0.16667 0.16667 0.16667 0.16667 0.16667 0.16667 0.16667 
0.16667 0.16667 0.16667 0.16667 0.16667 0.16667 0.16667 0.16667 0.16667 
0.16667 0.16667 0.16667 0.16667 0.16667 0.16667 0.16667 0.16667 0.16667 
0.16667 0.16667 0.16667 0.16667 0.16667 0.16667 0.16667 0.16667 0.16667 
0.16667 0.16667 0.16667 0.16667 0.16667 0.16667 0.16667 0.16667 0.16667 
0.16667 0.16667 0.16667 0.16667 0.16667 0.16667 0.16667 0.16667 0.16667 
0.16667 0.16667 0.16667 0.16667 0.16667 0.16667 0.16667 0.16667 0.16667 
0.16667 0.16667 0.16667 0.16667 0.16667 0.16667 0.16667 0.16667 0.16667 
0.16667 0.16667 0.16667 0.16667 0.16667 0.16667 0.16667 0.16667 0.16667 
0.16667 0.16667 0.16667 0.16667 0.16667 0.16667 0.16667 0.16667 0.16667 
0.16667 0.16667 0.16667 0.16667 0.16667 0.16667 0.16667 0.16667 0.16667 
0.16667 0.16667 0.16667 0.16667 0.16667 0.16667 0.16667 0.16667 0.16667 
0.16667 0.16667 0.16667 0.16667 0.16667 0.16667 0.16667 0.16667 0.16667 
0.16667 0.16667 0.16667 0.16667 0.16667 0.16667 0.16667 0.16667 0.16667 
0.16667 0.16667 0.16667 0.16667 0.16667 0.16667 0.16667 0.16667 0.16667 
0.16667 0.16667 0.16667 0.16667 0.16667 0.16667 0.16667 0.16667 0.16667 
0.16667 0.16667 0.16667 0.16667 0.16667 0.16667 0.16667 0.16667 0.16667 
0.16667 0.16667 0.16667 0.16667 0.16667 0.16667 0.16667 0.16667 0.16667 
0.16667 0.16667 0.16667 0.16667 0.16667 0.16667 0.16667 0.16667 0.16667 
0.16667 0.16667 0.16667 0.16667 0.16667 0.16667 0.16667 0.16667 0.16667 
0.16667 0.16667 0.16667 0.16667 0.16667 0.16667 0.16667 0.16667 0.16667 
0.16667 0.16667 0.16667 0.16667 0.16667 0.16667 0.16667 0.16667 0.16667 
0.16667 0.16667 0.16667 0.16667 0.16667 0.16667 0.16667 0.16667 0.16667 
0.16667 0.16667 0.16667 0.16667 0.16667 0.16667 0.16667 0.16667 0.16667 
0.16667 0.16667 0.16667 0.16667 0.16667 0.16667 0.16667 0.16667 0.16667 
0.16667 0.16667 0.16667 0.16667 0.16667 0.16667 0.16667 0.16667 0.16667 