# vtk DataFile Version 3.0
vtk output
ASCII
DATASET POLYDATA
POINTS 6092 float
9.8 7.336 0.758918 9.744 7.392 0.718744 9.8 7.392 0.664645 
9.856 7.392 0.701864 9.744 7.448 0.664376 9.8 7.448 0.627856 
9.856 7.448 0.659986 9.912 7.448 0.727648 9.744 7.504 0.712774 
9.8 7.504 0.659574 9.856 7.504 0.662754 9.912 7.504 0.675531 
9.968 7.504 0.714944 9.8 7.56 0.684401 9.856 7.56 0.670583 
9.912 7.56 0.668844 9.968 7.56 0.688091 10.024 7.56 0.768174 
9.856 7.616 0.71232 9.912 7.616 0.649594 9.968 7.616 0.682525 
10.024 7.616 0.767808 9.912 7.672 0.671816 9.968 7.672 0.675325 
9.912 7.952 0.733295 9.968 7.952 0.695522 9.856 8.008 0.709388 
9.912 8.008 0.657062 9.968 8.008 0.703207 10.024 8.008 0.788031 
9.856 8.064 0.686125 9.912 8.064 0.662413 9.968 8.064 0.687881 
9.856 8.12 0.715625 9.912 8.12 0.667917 9.968 8.12 0.676233 
9.912 8.176 0.765617 9.968 8.176 0.779251 9.912 8.232 0.744377 
9.968 8.232 0.710295 9.912 8.288 0.751724 9.968 8.288 0.720048 
9.912 8.344 0.745734 9.968 8.344 0.707363 9.912 8.4 0.731693 
9.912 8.456 0.706056 9.912 8.512 0.726692 9.912 8.568 0.711405 
9.856 8.624 0.719757 9.912 8.624 0.697959 9.856 8.68 0.722935 
9.912 8.68 0.710428 9.856 8.736 0.748177 9.912 8.736 0.758918 
9.856 8.792 0.767348 9.912 8.792 0.745583 9.576 6.608 0.91086 
9.52 6.664 0.881631 9.576 6.664 0.854978 9.632 6.664 0.869994 
9.52 6.72 0.864963 9.576 6.72 0.849046 9.632 6.72 0.868917 
9.52 6.776 0.86266 9.576 6.776 0.858912 9.632 6.776 0.879784 
9.52 6.832 0.859088 9.576 6.832 0.850597 9.632 6.832 0.874513 
9.52 6.888 0.874711 9.576 6.888 0.84072 9.632 6.888 0.859092 
9.52 6.944 0.865821 9.576 6.944 0.836917 9.632 6.944 0.848277 
9.576 7 0.854195 9.632 7 0.847594 9.688 7 0.986251 
9.576 7.056 0.966497 9.632 7.056 0.852058 9.688 7.056 0.943695 
8.4 7.112 0.864669 8.456 7.112 0.866741 9.632 7.112 0.883521 
9.688 7.112 0.874874 8.344 7.168 0.967705 8.4 7.168 0.861011 
8.456 7.168 0.85637 8.512 7.168 0.92473 9.688 7.168 0.854395 
9.744 7.168 0.889351 8.344 7.224 0.975671 8.4 7.224 0.936044 
8.456 7.224 0.89357 9.688 7.224 0.887863 9.744 7.224 0.856235 
9.8 7.224 0.897568 8.4 7.28 0.98262 8.456 7.28 0.937226 
9.688 7.28 0.874997 9.744 7.28 0.82817 9.8 7.32154 0.8 
9.8 7.28 0.84426 9.688 7.336 0.970776 9.74876 7.336 0.8 
9.744 7.3379 0.8 9.744 7.336 0.801698 9.81613 7.336 0.8 
9.856 7.35833 0.8 9.856 7.336 0.84178 9.71602 7.392 0.8 
9.688 7.392 0.961552 9.88496 7.392 0.8 9.912 7.42636 0.8 
9.912 7.392 0.869958 9.70188 7.448 0.8 9.93226 7.448 0.8 
9.968 7.48018 0.8 9.968 7.448 0.879821 9.71777 7.504 0.8 
9.744 7.53022 0.8 9.99261 7.504 0.8 10.024 7.55065 0.8 
10.024 7.504 0.864204 9.76588 7.56 0.8 9.744 7.56 0.956892 
9.8 7.59237 0.8 10.0329 7.56 0.8 9.83145 7.616 0.8 
9.8 7.616 0.871006 9.856 7.64908 0.8 10.033 7.616 0.8 
10.024 7.6335 0.8 9.86902 7.672 0.8 9.856 7.672 0.833416 
9.912 7.71931 0.8 10.0126 7.672 0.8 9.968 7.70691 0.8 
10.024 7.672 0.822696 9.912 7.728 0.832543 9.968 7.728 0.893361 
9.912 7.93332 0.8 9.968 7.92275 0.8 9.89029 7.952 0.8 
9.856 7.97935 0.8 10.0008 7.952 0.8 10.024 8.00375 0.8 
10.024 7.952 0.839502 9.83063 8.008 0.8 10.0274 8.008 0.8 
10.024 8.02416 0.8 10.08 8.008 0.883999 9.80731 8.064 0.8 
9.8 8.064 0.943913 10.0179 8.064 0.8 10.024 8.064 0.812669 
10.08 8.064 0.904 9.82518 8.12 0.8 9.8 8.12 0.90674 
9.856 8.15035 0.8 10.0096 8.12 0.8 10.024 8.12 0.846264 
9.8979 8.176 0.8 9.856 8.176 0.850438 9.97544 8.176 0.8 
10.024 8.176 0.852313 9.89643 8.232 0.8 9.856 8.232 0.872799 
9.99831 8.232 0.8 10.024 8.232 0.842987 9.89848 8.288 0.8 
9.856 8.288 0.876816 9.99584 8.288 0.8 10.024 8.288 0.840776 
9.89482 8.344 0.8 9.856 8.344 0.909554 9.99855 8.344 0.8 
9.968 8.39652 0.8 10.024 8.344 0.845891 9.89051 8.4 0.8 
9.856 8.4 0.857861 9.96245 8.4 0.8 9.968 8.4 0.803744 
10.024 8.4 0.980438 9.87977 8.456 0.8 9.856 8.456 0.844648 
9.94945 8.456 0.8 9.968 8.456 0.828591 9.88458 8.512 0.8 
9.856 8.512 0.839379 9.93639 8.512 0.8 9.968 8.512 0.849648 
9.87995 8.568 0.8 9.856 8.59433 0.8 9.856 8.568 0.835835 
9.94116 8.568 0.8 9.968 8.568 0.852759 9.83115 8.624 0.8 
9.8 8.624 0.901504 9.94414 8.624 0.8 9.968 8.624 0.851818 
9.82992 8.68 0.8 9.8 8.68 0.851394 9.94113 8.68 0.8 
9.968 8.68 0.848877 9.83784 8.736 0.8 9.8 8.736 0.850077 
9.92597 8.736 0.8 9.968 8.736 0.854301 9.84472 8.792 0.8 
9.8 8.792 0.852239 9.856 8.80612 0.8 9.92789 8.792 0.8 
9.912 8.80801 0.8 9.968 8.792 0.864798 9.8 8.848 0.858655 
9.856 8.848 0.832807 9.912 8.848 0.85112 9.8 8.904 0.867901 
9.856 8.904 0.850858 9.912 8.904 0.857922 9.8 8.96 0.863359 
9.856 8.96 0.851798 9.912 8.96 0.86612 9.8 9.016 0.857861 
9.856 9.016 0.85442 9.912 9.016 0.911713 9.8 9.072 0.855415 
9.856 9.072 0.85555 9.912 9.072 0.920993 9.8 9.128 0.860264 
9.856 9.128 0.886089 9.912 9.128 0.928405 9.8 9.184 0.896993 
9.856 9.184 0.921061 9.8 9.24 0.995301 9.576 6.58304 1 
9.54945 6.608 1 9.52 6.62933 1 9.52 6.608 1.04824 
9.62533 6.608 1 9.632 6.61109 1 9.632 6.608 1.01051 
9.48686 6.664 1 9.464 6.664 1.07771 9.67396 6.664 1 
9.688 6.664 1.05404 9.46687 6.72 1 9.464 6.72 1.00805 
9.67877 6.72 1 9.688 6.72 1.03374 9.46933 6.776 1 
9.464 6.776 1.01274 9.6673 6.776 1 9.688 6.776 1.05768 
9.47741 6.832 1 9.464 6.832 1.04907 9.67088 6.832 1 
9.688 6.832 1.05563 9.48346 6.888 1 9.67733 6.888 1 
9.688 6.888 1.0423 9.48243 6.944 1 9.52 6.98825 1 
9.68496 6.944 1 9.688 6.98375 1 9.688 6.944 1.01217 
9.52938 7 1 9.52 7 1.0662 9.69185 7 1 
8.4 7.06439 1 8.4 7.056 1.04552 8.456 7.06341 1 
8.456 7.056 1.04249 9.56662 7.056 1 9.576 7.06646 1 
9.70376 7.056 1 8.35665 7.112 1 8.344 7.15458 1 
8.344 7.112 1.05111 8.5018 7.112 1 8.512 7.13575 1 
8.512 7.112 1.02503 9.59761 7.112 1 9.576 7.112 1.07757 
9.632 7.16396 1 9.73279 7.112 1 9.744 7.12613 1 
9.744 7.112 1.06803 8.33496 7.168 1 8.53308 7.168 1 
8.512 7.22025 1 9.63418 7.168 1 9.632 7.168 1.00911 
9.77595 7.168 1 9.8 7.19434 1 9.8 7.168 1.15896 
8.33641 7.224 1 8.288 7.224 1.07364 8.344 7.24426 1 
8.50994 7.224 1 8.512 7.224 1.00286 9.65469 7.224 1 
9.632 7.224 1.10074 9.82868 7.224 1 8.288 7.28 1.06931 
8.3843 7.28 1 8.344 7.28 1.01618 8.4 7.2868 1 
8.47358 7.28 1 8.456 7.29758 1 8.512 7.28 1.06018 
9.653 7.28 1 9.85556 7.28 1 9.856 7.28048 1 
9.856 7.28 1.00179 8.232 7.336 1.14379 8.288 7.336 1.06991 
8.344 7.336 1.05295 8.4 7.336 1.05106 8.456 7.336 1.07132 
9.68028 7.336 1 9.89788 7.336 1 9.912 7.35436 1 
9.912 7.336 1.0774 8.232 7.392 1.13631 8.288 7.392 1.05919 
8.344 7.392 1.07215 8.4 7.392 1.13301 9.68015 7.392 1 
9.688 7.43326 1 9.688 7.392 1.02805 9.94705 7.392 1 
9.968 7.41435 1 8.232 7.448 1.0985 8.288 7.448 1.09797 
9.68948 7.448 1 10.0016 7.448 1 10.024 7.46669 1 
8.232 7.504 1.0904 8.288 7.504 1.15029 9.69464 7.504 1 
10.0613 7.504 1 8.176 7.56 1.13014 8.232 7.56 1.16309 
9.73311 7.56 1 9.744 7.57089 1 9.744 7.56 1.03889 
10.0709 7.56 1 10.08 7.56 1.07857 9.76388 7.616 1 
9.8 7.65212 1 10.0773 7.616 1 10.08 7.616 1.02608 
9.81515 7.672 1 9.856 7.71725 1 10.0715 7.672 1 
10.024 7.71497 1 10.08 7.672 1.0608 9.87141 7.728 1 
9.912 7.76316 1 9.99787 7.728 1 9.968 7.75786 1 
10.024 7.728 1.0833 9.912 7.91923 1 9.968 7.90622 1 
10.024 7.9095 1 10.024 7.896 1.1093 9.85674 7.952 1 
9.856 7.95289 1 10.0774 7.952 1 10.08 7.95765 1 
10.08 7.952 1.00998 9.82581 8.008 1 9.8 8.05998 1 
10.1179 8.008 1 10.136 8.008 1.09082 9.79598 8.064 1 
9.8 8.064 1.01435 10.1109 8.064 1 10.08 8.09877 1 
10.136 8.064 1.09708 9.78082 8.12 1 9.8 8.14386 1 
9.8 8.12 1.06851 10.067 8.12 1 10.08 8.12 1.08625 
9.81553 8.176 1 10.0632 8.176 1 10.08 8.176 1.10356 
9.82038 8.232 1 10.0661 8.232 1 9.82151 8.288 1 
10.0646 8.288 1 9.83305 8.344 1 10.0636 8.344 1 
9.81838 8.4 1 10.0295 8.4 1 10.024 8.41172 1 
9.81682 8.456 1 10.0165 8.456 1 10.024 8.456 1.04714 
9.81066 8.512 1 9.8 8.512 1.13386 10.0069 8.512 1 
9.80869 8.568 1 9.8 8.5893 1 9.8 8.568 1.05198 
10.0056 8.568 1 9.77485 8.624 1 10.0066 8.624 1 
9.76219 8.68 1 10.0071 8.68 1 9.7616 8.736 1 
10.0059 8.736 1 9.76157 8.792 1 10.0051 8.792 1 
9.968 8.83851 1 9.76244 8.848 1 9.96079 8.848 1 
9.968 8.848 1.02457 9.76257 8.904 1 9.9556 8.904 1 
9.968 8.904 1.05877 9.75833 8.96 1 9.744 8.96 1.06012 
9.94949 8.96 1 9.968 8.96 1.11646 9.75556 9.016 1 
9.744 9.016 1.04255 9.93672 9.016 1 9.75286 9.072 1 
9.744 9.072 1.03492 9.93697 9.072 1 9.75224 9.128 1 
9.744 9.128 1.03176 9.93205 9.128 1 9.912 9.15026 1 
9.763 9.184 1 9.744 9.184 1.0393 9.88039 9.184 1 
9.856 9.20921 1 9.912 9.184 1.0627 9.79804 9.24 1 
9.744 9.24 1.04324 9.80164 9.24 1 9.8 9.24308 1 
9.856 9.24 1.05831 9.744 9.296 1.04796 9.8 9.296 1.02586 
9.856 9.296 1.0699 9.744 9.352 1.05159 9.8 9.352 1.02431 
9.856 9.352 1.11585 9.688 9.408 1.10444 9.744 9.408 1.05105 
9.8 9.408 1.05689 9.688 9.464 1.09758 9.744 9.464 1.05284 
9.8 9.464 1.124 9.688 9.52 1.0963 9.744 9.52 1.06693 
9.688 9.576 1.11122 9.744 9.576 1.15129 9.8 6.16 1.33165 
9.856 6.16 1.30008 9.8 6.216 1.29851 9.856 6.216 1.32659 
9.912 6.216 1.36233 9.8 6.272 1.27632 9.856 6.272 1.32905 
9.52 6.56671 1.2 9.576 6.56867 1.2 9.632 6.57093 1.2 
9.47871 6.608 1.2 9.464 6.62976 1.2 9.464 6.608 1.34756 
9.67286 6.608 1.2 9.688 6.62491 1.2 9.42976 6.664 1.2 
9.72309 6.664 1.2 9.688 6.664 1.38033 9.42323 6.72 1.2 
9.408 6.72 1.34137 9.72435 6.72 1.2 9.42207 6.776 1.2 
9.408 6.776 1.31713 9.72448 6.776 1.2 9.43102 6.832 1.2 
9.464 6.87256 1.2 9.72288 6.832 1.2 9.47347 6.888 1.2 
9.72589 6.888 1.2 9.47219 6.944 1.2 9.72921 6.944 1.2 
8.4 7.02487 1.2 8.456 7.02631 1.2 9.49075 7 1.2 
9.52 7.02925 1.2 9.52 7 1.33839 9.72939 7 1.2 
8.36781 7.056 1.2 8.344 7.07516 1.2 8.4 7.056 1.32481 
8.48569 7.056 1.2 8.456 7.056 1.30602 8.512 7.06963 1.2 
9.53464 7.056 1.2 9.72934 7.056 1.2 9.744 7.08692 1.2 
8.30815 7.112 1.2 8.55437 7.112 1.2 9.5435 7.112 1.2 
9.576 7.1445 1.2 9.576 7.112 1.35474 9.76908 7.112 1.2 
9.744 7.112 1.32716 9.8 7.15714 1.2 8.30219 7.168 1.2 
8.288 7.18917 1.2 8.288 7.168 1.32541 8.5657 7.168 1.2 
8.568 7.168 1.35528 9.59311 7.168 1.2 9.81086 7.168 1.2 
9.8 7.168 1.24618 8.25425 7.224 1.2 8.56056 7.224 1.2 
9.60616 7.224 1.2 9.632 7.24984 1.2 9.632 7.224 1.32071 
[...]
POINT_DATA 6092
SCALARS scalars float
LOOKUP_TABLE default
0.16667 0.16667 0.16667 0.16667 0.16667 0.16667 0.16667 0.16667 0.16667 
0.16667 0.16667 0.16667 0.16667 0.16667 0.16667 0.16667 0.16667 0.16667 
0.16667 0.16667 0.16667 0.16667 0.16667 0.16667 0.16667 0.16667 0.16667 
0.16667 0.16667 0.16667 0.16667 0.16667 0.16667 0.16667 0.16667 0.16667 
0.16667 0.16667 0.16667 0.16667 0.16667 0.16667 0.16667 0.16667 0.16667 
0.16667 0.16667 0.16667 0.16667 0.16667 0.16667 0.16667 0.16667 0.16667 
0.16667 0.16667 0.16667 0.16667 0.16667 0.16667 0.16667 0.16667 0.16667 
0.16667 0.16667 0.16667 0.16667 0.16667 0.16667 0.16667 0.16667 0.16667 
0.16667 0.16667 0.16667 0.16667 0.16667 0.16667 0.16667 0.16667 0.16667 
0.16667 0.16667 0.16667 0.16667 0.16667 0.16667 0.16667 0.16667 0.16667 
0.16667 0.16667 0.16667 0.16667 0.16667 0.16667 0.16667 0.16667 0.16667 
0.16667 0.16667 0.16667 0.16667 0.16667 0.16667 0.16667 0.16667 0.16667 
0.16667 0.16667 0.16667 0.16667 0.16667 0.16667 0.16667 0.16667 0.16667 
0.16667 0.16667 0.16667 0.16667 0.16667 0.16667 0.16667 0.16667 0.16667 
0.16667 0.16667 0.16667 0.16667 0.16667 0.16667 0.16667 0.16667 0.16667 
0.16667 0.16667 0.16667 0.16667 0.16667 0.16667 0.16667 0.16667 0.16667 
0.16667 0.16667 0.16667 0.16667 0.16667 0.16667 0.16667 0.16667 0.16667 
0.16667 0.16667 0.16667 0.16667 0.16667 0.16667 0.16667 0.16667 0.16667 
0.16667 0.16667 0.16667 0.16667 0.16667 0.16667 0.16667 0.16667 0.16667 
0.16667 0.16667 0.16667 0.16667 0.16667 0.16667 0.16667 0.16667 0.16667 
0.16667 0.16667 0.16667 0.16667 0.16667 0.16667 0.16667 0.16667 0.16667 
0.16667 0.16667 0.16667 0.16667 0.16667 0.16667 0.16667 0.16667 0.16667 
0.16667 0.16667 0.16667 0.16667 0.16667 0.16667 0.16667 0.16667 0.16667 
0.16667 0.16667 0.16667 0.16667 0.16667 0.16667 0.16667 0.16667 0.16667 
0.16667 0.16667 0.16667 0.16667 0.16667 0.16667 0.16667 0.16667 0.16667 
0.16667 0.16667 0.16667 0.16667 0.16667 0.16667 0.16667 0.16667 0.16667 
0.16667 0.16667 0.16667 0.16667 0.16667 0.16667 0.16667 0.16667 0.16667 
0.16667 0.16667 0.16667 0.16667 0.16667 0.16667 0.16667 0.16667 0.16667 
0.16667 0.16667 0.16667 0.16667 0.16667 0.16667 0.16667 0.16667 0.16667 
0.16667 0.16667 0.16667 0.16667 0.16667 0.16667 0.16667 0.16667 0.16667 
0.16667 0.16667 0.16667 0.16667 0.16667 0.16667 0.16667 0.16667 0.16667 
0.16667 0.16667 0.16667 0.16667 0.16667 0.16667 0.16667 0.16667 0.16667 
0.16667 0.16667 0.16667 0.16667 0.16667 0.16667 0.16667 0.16667 0.16667 
0.16667 0.16667 0.16667 0.16667 0.16667 0.16667 0.16667 0.16667 0.16667 
0.16667 0.16667 0.16667 0.16667 0.16667 0.16667 0.16667 0.16667 0.16667 
0.16667 0.16667 0.16667 0.16667 0.16667 0.16667 0.16667 0.16667 0.16667 
0.16667 0.16667 0.16667 0.16667 0.16667 0.16667 0.16667 0.16667 0.16667 
0.16667 0.16667 0.16667 0.16667 0.16667 0.16667 0.16667 0.16667 0.16667 
0.16667 0.16667 0.16667 0.16667 0.16667 0.16667 0.16667 0.16667 0.16667 
0.16667 0.16667 0.16667 0.16667 0.16667 0.16667 0.16667 0.16667 0.16667 
0.16667 0.16667 0.16667 0.16667 0.16667 0.16667 0.16667 0.16667 0.16667 
0.16667 0.16667 0.16667 0.16667 0.16667 0.16667 0.16667 0.16667 0.16667 
0.16667 0.16667 0.16667 0.16667 0.16667 0.16667 0.16667 0.16667 0.16667 
0.16667 0.16667 0.16667 0.16667 0.16667 0.16667 0.16667 0.16667 0.16667 
0.16667 0.16667 0.16667 0.16667 0.16667 0.16667 0.16667 0.16667 0.16667 
0.16667 0.16667 0.16667 0.16667 0.16667 0.16667 0.16667 0.16667 0.16667 
0.16667 0.16667 0.16667 0.16667 0.16667 0.16667 0.16667 0.16667 0.16667 
0.16667 0.16667 0.16667 0.16667 0.16667 0.16667 0.16667 0.16667 0.16667 
0.16667 0.16667 0.16667 0.16667 0.16667 0.16667 0.16667 0.16667 0.16667 
0.16667 0.16667 0.16667 0.16667 0.16667 0.16667 0.16667 0.16667 0.16667 
0.16667 0.16667 0.16667 0.16667 0.16667 0.16667 0.16667 0.16667 0.16667 
0.16667 0.16667 0.16667 0.16667 0.16667 0.16667 0.16667 0.16667 0.16667 
0.16667 0.16667 0.16667 0.16667 0.16667 0.16667 0.16667 0.16667 0.16667 
0.16667 0.16667 0.16667 0.16667 0.16667 0.16667 0.16667 0.16667 0.16667 
0.16667 0.16667 0.16667 0.16667 0.16667 0.16667 0.16667 0.16667 0.16667 
0.16667 0.16667 0.16667 0.16667 0.16667 0.16667 0.16667 0.16667 0.16667 
0.16667 0.16667 0.16667 0.16667 0.16667 0.16667 0.16667 0.16667 0.16667 
0.16667 0.16667 0.16667 0.16667 0.16667 0.16667 0.16667 0.16667 0.16667 
0.16667 0.16667 0.16667 0.16667 0.16667 0.16667 0.16667 0.16667 0.16667 
0.16667 0.16667 0.16667 0.16667 0.16667 0.16667 0.16667 0.16667 0.16667 
0.16667 0.16667 0.16667 0.16667 0.16667 0.16667 0.16667 0.16667 0.16667 
0.16667 0.16667 0.16667 0.16667 0.16667 0.16667 0.16667 0.16667 0.16667 
0.16667 0.16667 0.16667 0.16667 0.16667 0.16667 0.16667 0.16667 0.16667 
0.16667 0.16667 0.16667 0.16667 0.16667 0.16667 0.16667 0.16667 0.16667 
0.16667 0.16667 0.16667 0.16667 0.16667 0.16667 0.16667 0.16667 0.16667 
0.16667 0.16667 0.16667 0.16667 0.16667 0.16667 0.16667 0.16667 0.16667 
0.16667 0.16667 0.16667 0.16667 0.16667 0.16667 0.16667 0.16667 0.16667 
0.16667 0.16667 0.16667 0.16667 0.16667 0.16667 0.16667 0.16667 0.16667 
0.16667 0.16667 0.16667 0.16667 0.16667 0.16667 0.16667 0.16667 0.16667 
0.16667 0.16667 0.16667 0.16667 0.16667 0.16667 0.16667 0.16667 0.16667 
0.16667 0.16667 0.16667 0.16667 0.16667 0.16667 0.16667 0.16667 0.16667 
0.16667 0.16667 0.16667 0.16667 0.16667 0.16667 0.16667 0.16667 0.16667 
0.16667 0.16667 0.16667 0.16667 0.16667 0.16667 0.16667 0.16667 0.16667 
0.16667 0.16667 0.16667 0.16667 0.16667 0.16667 0.16667 0.16667 0.16667 
0.16667 0.16667 0.16667 0.16667 0.16667 0.16667 0.16667 0.16667 0.16667 
0.16667 0.16667 0.16667 0.16667 0.16667 0.16667 0.16667 0.16667 0.16667 
0.16667 0.16667 0.16667 0.16667 0.16667 0.16667 0.16667 0.16667 0.16667 
0.16667 0.16667 0.16667 0.16667 0.16667 0.16667 0.16667 0.16667 0.16667 
0.16667 0.16667 0.16667 0.16667 0.16667 0.16667 0.16667 0.16667 0.16667 
0.16667 0.16667 0.16667 0.16667 0.16667 0.16667 0.16667 0.16667 0.16667 
0.16667 0.16667 0.16667 0.16667 0.16667 0.16667 0.16667 0.16667 0.16667 
0.16667 0.16667 0.16667 0.16667 0.16667 0.16667 0.16667 0.16667 0.16667 
0.16667 0.16667 0.16667 0.16667 0.16667 0.16667 0.16667 0.16667 0.16667 
0.16667 0.16667 0.16667 0.16667 0.16667 0.16667 0.16667 0.16667 0.16667 
0.16667 0.16667 0.16667 0.16667 0.16667 0.16667 0.16667 0.16667 0.16667 
0.16667 0.16667 0.16667 0.16667 0.16667 0.16667 0.16667 0.16667 0.16667 
0.16667 0.16667 0.16667 0.16667 0.16667 0.16667 0.16667 0.16667 0.16667 
0.16667 0.16667 0.16667 0.16667 0.16667 0.16667 0.16667 0.16667 0.16667 
0.16667 0.16667 0.16667 0.16667 0.16667 0.16667 0.16667 0.16667 0.16667 
0.16667 0.16667 0.16667 0.16667 0.16667 0.16667 0.16667 0.16667 0.16667 
0.16667 0.16667 0.16667 0.16667 0.16667 0.16667 0.16667 0.16667 0.16667 
0.16667 0.16667 0.16667 0.16667 0.16667 0.16667 0.16667 0.16667 0.16667 
0.16667 0.16667 0.16667 0.16667 0.16667 0.16667 0.16667 0.16667 0.16667 
0.16667 0.16667 0.16667 0.16667 0.16667 0.16667 0.16667 0.16667 0.16667 
0.16667 0.16667 0.16667 0.16667 0.16667 0.16667 0.16667 0.16667 0.16667 
0.16667 0.16667 0.16667 0.16667 0.16667 0.16667 0.16667 0.16667 0.16667 
0.16667 0.16667 0.16667 0.16667 0.16667 0.16667 0.16667 0.16667 0.16667 
0.16667 0.16667 0.16667 0.16667 0.16667 0.16667 0.16667 0.16667 0.16667 
0.16667 0.16667 0.16667 0.16667 0.16667 0.16667 0.16667 0.16667 0.16667 
0.16667 0.16667 0.16667 0.16667 0.16667 0.16667 0.16667 0.16667 0.16667 
0.16667 0.16667 0.16667 0.16667 0.16667 0.16667 0.16667 0.16667 0.16667 
0.16667 0.16667 0.16667 0.16667 0.16667 0.16667 0.16667 0.16667 0.16667 
0.16667 0.16667 0.16667 0.16667 0.16667 0.16667 0.16667 0.16667 0.16667 
0.16667 0.16667 0.16667 0.16667 0.16667 0.16667 0.16667 0.16667 0.16667 
0.16667 0.16667 0.16667 0.16667 0.16667 0.16667 0.16667 0.16667 0.16667 
0.16667 0.16667 0.16667 0.16667 0.16667 0.16667 0.16667 0.16667 0.16667 
0.16667 0.16667 0.16667 0.16667 0.16667 0.16667 0.16667 0.16667 0.16667 
0.16667 0.16667 0.16667 0.16667 0.16667 0.16667 0.16667 0.16667 0.16667 
0.16667 0.16667 0.16667 0.16667 0.16667 0.16667 0.16667 0.16667 0.16667 
0.16667 0.16667 0.16667 0.16667 0.16667 0.16667 0.16667 0.16667 0.16667 
0.16667 0.16667 0.16667 0.16667 0.16667 0.16667 0.16667 0.16667 0.16667 
0.16667 0.16667 0.16667 0.16667 0.16667 0.16667 0.16667 0.16667 0.16667 
0.16667 0.16667 0.16667 0.16667 0.16667 0.16667 0.16667 0.16667 0.16667 
0.16667 0.16667 0.16667 0.16667 0.16667 0.16667 0.16667 0.16667 0.16667 
0.16667 0.16667 0.16667 0.16667 0.16667 0.16667 0.16667 0.16667 0.16667 
0.16667 0.16667 0.16667 0.16667 0.16667 0.16667 0.16667 0.16667 0.16667 
0.16667 0.16667 0.16667 0.16667 0.16667 0.16667 0.16667 0.16667 0.16667 
0.16667 0.16667 0.16667 0.16667 0.16667 0.16667 0.16667 0.16667 0.16667 
0.16667 0.16667 0.16667 0.16667 0.16667 0.16667 0.16667 0.16667 0.16667 
0.16667 0.16667 0.16667 0.16667 0.16667 0.16667 0.16667 0.16667 0.16667 
0.16667 0.16667 0.16667 0.16667 0.16667 0.16667 0.16667 0.16667 0.16667 
0.16667 0.16667 0.16667 0.16667 0.16667 0.16667 0.16667 0.16667 0.16667 
0.16667 0.16667 0.16667 0.16667 0.16667 0.16667 0.16667 0.16667 0.16667 
0.16667 0.16667 0.16667 0.16667 0.16667 0.16667 0.16667 0.16667 0.16667 
0.16667 0.16667 0.16667 0.16667 0.16667 0.16667 0.16667 0.16667 0.16667 
0.16667 0.16667 0.16667 0.16667 0.16667 0.16667 0.16667 0.16667 0.16667 
0.16667 0.16667 0.16667 0.16667 0.16667 0.16667 0.16667 0.16667 0.16667 
0.16667 0.16667 0.16667 0.16667 0.16667 0.16667 0.16667 0.16667 0.16667 
0.16667 0.16667 0.16667 0.16667 0.16667 0.16667 0.16667 0.16667 0.16667 
0.16667 0.16667 0.16667 0.16667 0.16667 0.16667 0.16667 0.16667 0.16667 
0.16667 0.16667 0.16667 0.16667 0.16667 0.16667 0.16667 0.16667 0.16667 
0.16667 0.16667 0.16667 0.16667 0.16667 0.16667 0.16667 0.16667 0.16667 
0.16667 0.16667 0.16667 0.16667 0.16667 0.16667 0.16667 0.16667 0.16667 
0.16667 0.16667 0.16667 0.16667 0.16667 0.16667 0.16667 0.16667 0.16667 
0.16667 0.16667 0.16667 0.16667 0.16667 0.16667 0.16667 0.16667 0.16667 
0.16667 0.16667 0.16667 0.16667 0.16667 0.16667 0.16667 0.16667 0.16667 
0.16667 0.16667 0.16667 0.16667 0.16667 0.16667 0.16667 0.16667 0.16667 
0.16667 0.16667 0.16667 0.16667 0.16667 0.16667 0.16667 0.16667 0.16667 
0.16667 0.16667 0.16667 0.16667 0.16667 0.16667 0.16667 0.16667 0.16667 
0.16667 0.16667 0.16667 0.16667 0.16667 0.16667 0.16667 0.16667 0.16667 
0.16667 0.16667 0.16667 0.16667 0.16667 0.16667 0.16667 0.16667 0.16667 
0.16667 0.16667 0.16667 0.16667 0.16667 0.16667 0.16667 0.16667 0.16667 
0.16667 0.16667 0.16667 0.16667 0.16667 0.16667 0.16667 0.16667 0.16667 
0.16667 0.16667 0.16667 0.16667 0.16667 0.16667 0.16667 0.16667 0.16667 
0.16667 0.16667 0.16667 0.16667 0.16667 0.16667 0.16667 0.16667 0.16667 
0.16667 0.16667 0.16667 0.16667 0.16667 0.16667 0.16667 0.16667 0.16667 
0.16667 0.16667 0.16667 0.16667 0.16667 0.16667 0.16667 0.16667 0.16667 
0.16667 0.16667 0.16667 0.16667 0.16667 0.16667 0.16667 0.16667 0.16667 
0.16667 0.16667 0.16667 0.16667 0.16667 0.16667 0.16667 0.16667 0.16667 
0.16667 0.16667 0.16667 0.16667 0.16667 0.16667 0.16667 0.16667 0.16667 
0.16667 0.16667 0.16667 0.16667 0.16667 0.16667 0.16667 0.16667 0.16667 
0.16667 0.16667 0.16667 0.16667 0.16667 0.16667 0.16667 0.16667 0.16667 
0.16667 0.16667 0.16667 0.16667 0.16667 0.16667 0.16667 0.16667 0.16667 
0.16667 0.16667 0.16667 0.16667 0.16667 0.16667 0.16667 0.16667 0.16667 
0.16667 0.16667 0.16667 0.16667 0.16667 0.16667 0.16667 0.16667 0.16667 
0.16667 0.16667 0.16667 0.16667 0.16667 0.16667 0.16667 0.16667 0.16667 
0.16667 0.16667 0.16667 0.16667 0.16667 0.16667 0.16667 0.16667 0.16667 
0.16667 0.16667 0.16667 0.16667 0.16667 0.16667 0.16667 0.16667 0.16667 
0.16667 0.16667 0.16667 0.16667 0.16667 0.16667 0.16667 0.16667 0.16667 
0.16667 0.16667 0.16667 0.16667 0.16667 0.16667 0.16667 0.16667 0.16667 
0.16667 0.16667 0.16667 0.16667 0.16667 0.16667 0.16667 0.16667 0.16667 
0.16667 0.16667 0.16667 0.16667 0.16667 0.16667 0.16667 0.16667 0.16667 
0.16667 0.16667 0.16667 0.16667 0.16667 0.16667 0.16667 0.16667 0.16667 
0.16667 0.16667 0.16667 0.16667 0.16667 0.16667 0.16667 0.16667 0.16667 
0.16667 0.16667 0.16667 0.16667 0.16667 0.16667 0.16667 0.16667 0.16667 
0.16667 0.16667 0.16667 0.16667 0.16667 0.16667 0.16667 0.16667 0.16667 
0.16667 0.16667 0.16667 0.16667 0.16667 0.16667 0.16667 0.16667 0.16667 
0.16667 0.16667 0.16667 0.16667 0.16667 0.16667 0.16667 0.16667 0.16667 
0.16667 0.16667 0.16667 0.16667 0.16667 0.16667 0.16667 0.16667 0.16667 
0.16667 0.16667 0.16667 0.16667 0.16667 0.16667 0.16667 0.16667 0.16667 
0.16667 0.16667 0.16667 0.16667 0.16667 0.16667 0.16667 0.16667 0.16667 
0.16667 0.16667 0.16667 0.16667 0.16667 0.16667 0.16667 0.16667 0.16667 
0.16667 0.16667 0.16667 0.16667 0.16667 0.16667 0.16667 0.16667 0.16667 
0.16667 0.16667 0.16667 0.16667 0.16667 0.16667 0.16667 0.16667 0.16667 
0.16667 0.16667 0.16667 0.16667 0.16667 0.16667 0.16667 0.16667 0.16667 
0.16667 0.16667 0.16667 0.16667 0.16667 0.16667 0.16667 0.16667 0.16667 
0.16667 0.16667 0.16667 0.16667 0.16667 0.16667 0.16667 0.16667 0.16667 
0.16667 0.16667 0.16667 0.16667 0.16667 0.16667 0.16667 0.16667 0.16667 
0.16667 0.16667 0.16667 0.16667 0.16667 0.16667 0.16667 0.16667 0.16667 
0.16667 0.16667 0.16667 0.16667 0.16667 0.16667 0.16667 0.16667 0.16667 
0.16667 0.16667 0.16667 0.16667 0.16667 0.16667 0.16667 0.16667 0.16667 
0.16667 0.16667 0.16667 0.16667 0.16667 0.16667 0.16667 0.16667 0.16667 
0.16667 0.16667 0.16667 0.16667 0.16667 0.16667 0.16667 0.16667 0.16667 
0.16667 0.16667 0.16667 0.16667 0.16667 0.16667 0.16667 0.16667 0.16667 
0.16667 0.16667 0.16667 0.16667 0.16667 0.16667 0.16667 0.16667 0.16667 
0.16667 0.16667 0.16667 0.16667 0.16667 0.16667 0.16667 0.16667 0.16667 
0.16667 0.16667 0.16667 0.16667 0.16667 0.16667 0.16667 0.16667 0.16667 
0.16667 0.16667 0.16667 0.16667 0.16667 0.16667 0.16667 0.16667 0.16667 
0.16667 0.16667 0.16667 0.16667 0.16667 0.16667 0.16667 0.16667 0.16667 
0.16667 0.16667 0.16667 0.16667 0.16667 0.16667 0.16667 0.16667 0.16667 
0.16667 0.16667 0.16667 0.16667 0.16667 0.16667 0.16667 0.16667 0.16667 
0.16667 0.16667 0.16667 0.16667 0.16667 0.16667 0.16667 0.16667 0.16667 
0.16667 0.16667 0.16667 0.16667 0.16667 0.16667 0.16667 0.16667 0.16667 
0.16667 0.16667 0.16667 0.16667 0.16667 0.16667 0.16667 0.16667 0.16667 
0.16667 0.16667 0.16667 0.16667 0.16667 0.16667 0.16667 0.16667 0.16667 
0.16667 0.16667 0.16667 0.16667 0.16667 0.16667 0.16667 0.16667 0.16667 
0.16667 0.16667 0.16667 0.16667 0.16667 0.16667 0.16667 0.16667 0.16667 
0.16667 0.16667 0.16667 0.16667 0.16667 0.16667 0.16667 0.16667 0.16667 
0.16667 0.16667 0.16667 0.16667 0.16667 0.16667 0.16667 0.16667 0.16667 
0.16667 0.16667 0.16667 0.16667 0.16667 0.16667 0.16667 0.16667 0.16667 
0.16667 0.16667 0.16667 0.16667 0.16667 0.16667 0.16667 0.16667 0.16667 
0.16667 0.16667 0.16667 0.16667 0.16667 0.16667 0.16667 0.16667 0.16667 
0.16667 0.16667 0.16667 0.16667 0.16667 0.16667 0.16667 0.16667 0.16667 
0.16667 0.16667 0.16667 0.16667 0.16667 0.16667 0.16667 0.16667 0.16667 
0.16667 0.16667 0.16667 0.16667 0.16667 0.16667 0.16667 0.16667 0.16667 
0.16667 0.16667 0.16667 0.16667 0.16667 0.16667 0.16667 0.16667 0.16667 
0.16667 0.16667 0.16667 0.16667 0.16667 0.16667 0.16667 0.16667 0.16667 
0.16667 0.16667 0.16667 0.16667 0.16667 0.16667 0.16667 0.16667 0.16667 
0.16667 0.16667 0.16667 0.16667 0.16667 0.16667 0.16667 0.16667 0.16667 
0.16667 0.16667 0.16667 0.16667 0.16667 0.16667 0.16667 0.16667 0.16667 
0.16667 0.16667 0.16667 0.16667 0.16667 0.16667 0.16667 0.16667 0.16667 
0.16667 0.16667 0.16667 0.16667 0.16667 0.16667 0.16667 0.16667 0.16667 
0.16667 0.16667 0.16667 0.16667 0.16667 0.16667 0.16667 0.16667 0.16667 
0.16667 0.16667 0.16667 0.16667 0.16667 0.16667 0.16667 0.16667 0.16667 
0.16667 0.16667 0.16667 0.16667 0.16667 0.16667 0.16667 0.16667 0.16667 
0.16667 0.16667 0.16667 0.16667 0.16667 0.16667 0.16667 0.16667 0.16667 
0.16667 0.16667 0.16667 0.16667 0.16667 0.16667 0.16667 0.16667 0.16667 
0.16667 0.16667 0.16667 0.16667 0.16667 0.16667 0.16667 0.16667 0.16667 
0.16667 0.16667 0.16667 0.16667 0.16667 0.16667 0.16667 0.16667 0.16667 
0.16667 0.16667 0.16667 0.16667 0.16667 0.16667 0.16667 0.16667 0.16667 
0.16667 0.16667 0.16667 0.16667 0.16667 0.16667 0.16667 0.16667 0.16667 
0.16667 0.16667 0.16667 0.16667 0.16667 0.16667 0.16667 0.16667 0.16667 
0.16667 0.16667 0.16667 0.16667 0.16667 0.16667 0.16667 0.16667 0.16667 
0.16667 0.16667 0.16667 0.16667 0.16667 0.16667 0.16667 0.16667 0.16667 
0.16667 0.16667 0.16667 0.16667 0.16667 0.16667 0.16667 0.16667 0.16667 
0.16667 0.16667 0.16667 0.16667 0.16667 0.16667 0.16667 0.16667 0.16667 
0.16667 0.16667 0.16667 0.16667 0.16667 0.16667 0.16667 0.16667 0.16667 
0.16667 0.16667 0.16667 0.16667 0.16667 0.16667 0.16667 0.16667 0.16667 
0.16667 0.16667 0.16667 0.16667 0.16667 0.16667 0.16667 0.16667 0.16667 
0.16667 0.16667 0.16667 0.16667 0.16667 0.16667 0.16667 0.16667 0.16667 
0.16667 0.16667 0.16667 0.16667 0.16667 0.16667 0.16667 0.16667 0.16667 
0.16667 0.16667 0.16667 0.16667 0.16667 0.16667 0.16667 0.16667 0.16667 
0.16667 0.16667 0.16667 0.16667 0.16667 0.16667 0.16667 0.16667 0.16667 
0.16667 0.16667 0.16667 0.16667 0.16667 0.16667 0.16667 0.16667 0.16667 
0.16667 0.16667 0.16667 0.16667 0.16667 0.16667 0.16667 0.16667 0.16667 
0.16667 0.16667 0.16667 0.16667 0.16667 0.16667 0.16667 0.16667 0.16667 
0.16667 0.16667 0.16667 0.16667 0.16667 0.16667 0.16667 0.16667 0.16667 
0.16667 0.16667 0.16667 0.16667 0.16667 0.16667 0.16667 0.16667 0.16667 
0.16667 0.16667 0.16667 0.16667 0.16667 0.16667 0.16667 0.16667 0.16667 
0.16667 0.16667 0.16667 0.16667 0.16667 0.16667 0.16667 0.16667 0.16667 
0.16667 0.16667 0.16667 0.16667 0.16667 0.16667 0.16667 0.16667 0.16667 
0.16667 0.16667 0.16667 0.16667 0.16667 0.16667 0.16667 0.16667 0.16667 
0.16667 0.16667 0.16667 0.16667 0.16667 0.16667 0.16667 0.16667 0.16667 
0.16667 0.16667 0.16667 0.16667 0.16667 0.16667 0.16667 0.16667 0.16667 
0.16667 0.16667 0.16667 0.16667 0.16667 0.16667 0.16667 0.16667 0.16667 
0.16667 0.16667 0.16667 0.16667 0.16667 0.16667 0.16667 0.16667 0.16667 
0.16667 0.16667 0.16667 0.16667 0.16667 0.16667 0.16667 0.16667 0.16667 
0.16667 0.16667 0.16667 0.16667 0.16667 0.16667 0.16667 0.16667 0.16667 
0.16667 0.16667 0.16667 0.16667 0.16667 0.16667 0.16667 0.16667 0.16667 
0.16667 0.16667 0.16667 0.16667 0.16667 0.16667 0.16667 0.16667 0.16667 
0.16667 0.16667 0.16667 0.16667 0.16667 0.16667 0.16667 0.16667 0.16667 
0.16667 0.16667 0.16667 0.16667 0.16667 0.16667 0.16667 0.16667 0.16667 
0.16667 0.16667 0.16667 0.16667 0.16667 0.16667 0.16667 0.16667 0.16667 
0.16667 0.16667 0.16667 0.16667 0.16667 0.16667 0.16667 0.16667 0.16667 
0.16667 0.16667 0.16667 0.16667 0.16667 0.16667 0.16667 0.16667 0.16667 
0.16667 0.16667 0.16667 0.16667 0.16667 0.16667 0.16667 0.16667 0.16667 
0.16667 0.16667 0.16667 0.16667 0.16667 0.16667 0.16667 0.16667 0.16667 
0.16667 0.16667 0.16667 0.16667 0.16667 0.16667 0.16667 0.16667 0.16667 
0.16667 0.16667 0.16667 0.16667 0.16667 0.16667 0.16667 0.16667 0.16667 
0.16667 0.16667 0.16667 0.16667 0.16667 0.16667 0.16667 0.16667 0.16667 
0.16667 0.16667 0.16667 0.16667 0.16667 0.16667 0.16667 0.16667 0.16667 
0.16667 0.16667 0.16667 0.16667 0.16667 0.16667 0.16667 0.16667 0.16667 
0.16667 0.16667 0.16667 0.16667 0.16667 0.16667 0.16667 0.16667 0.16667 
0.16667 0.16667 0.16667 0.16667 0.16667 0.16667 0.16667 0.16667 0.16667 
0.16667 0.16667 0.16667 0.16667 0.16667 0.16667 0.16667 0.16667 0.16667 
0.16667 0.16667 0.16667 0.16667 0.16667 0.16667 0.16667 0.16667 0.16667 
0.16667 0.16667 0.16667 0.16667 0.16667 0.16667 0.16667 0.16667 0.16667 
0.16667 0.16667 0.16667 0.16667 0.16667 0.16667 0.16667 0.16667 0.16667 
0.16667 0.16667 0.16667 0.16667 0.16667 0.16667 0.16667 0.16667 0.16667 
0.16667 0.16667 0.16667 0.16667 0.16667 0.16667 0.16667 0.16667 0.16667 
0.16667 0.16667 0.16667 0.16667 0.16667 0.16667 0.16667 0.16667 0.16667 
0.16667 0.16667 0.16667 0.16667 0.16667 0.16667 0.16667 0.16667 0.16667 
0.16667 0.16667 0.16667 0.16667 0.16667 0.16667 0.16667 0.16667 0.16667 