# vtk DataFile Version 3.0
vtk output
ASCII
DATASET POLYDATA
POINTS 182 float
8.624 7.784 4.8 7.48533 7.63467 4.8 9.33333 8.41867 4.6 
8.232 7.84 4.6 8.624 7.672 4.6 8.12 7.56 4.6 
9.3184 9.0496 3.96 9.464 8.736 4.2 9.576 8.736 4 
9.52 9.24 3.6 10.2107 8.15733 3.26667 10.248 8.008 3.4 
9.408 9.464 3.2 9.87467 8.86667 3.06667 6.86933 6.944 3 
8.008 9.632 2.8 9.744 8.68 2.8 8.624 9.52 2.2 
7.112 8.344 1.05 7.2077 8.3043 1.02593 7.27781 8.29019 1.00926 
7.33589 8.28822 1.00185 7.392 8.29019 1 7.44789 8.30441 1.00741 
7.50181 8.34619 1.02963 7.54348 8.40011 1.07407 7.55562 8.45589 1.12593 
7.54348 8.50992 1.17037 7.50181 8.55367 1.2 7.44789 8.57992 1.22963 
7.392 8.60759 1.27407 7.336 8.60759 1.32593 7.28 8.57992 1.36296 
7.22411 8.55356 1.35741 7.17019 8.50773 1.29815 7.1283 8.43959 1.18889 
8.568 9.52 2.22963 8.512 9.52 2.27407 8.456 9.52 2.32593 
8.4 9.52 2.37778 8.344 9.52 2.42222 8.288 9.52 2.48148 
8.232 9.52 2.55556 8.176 9.52011 2.64444 8.12011 9.52219 2.71852 
8.06619 9.53641 2.77037 8.0243 9.57819 2.79259 9.76103 8.73673 2.84938 
9.80762 8.79743 2.93827 6.80097 6.95822 3.2 6.76346 6.98797 3.4 
6.72226 7.01433 3.6 6.69462 7.05808 3.79259 6.71016 7.112 3.97037 
6.73444 7.16592 4.11852 6.77808 7.20978 4.23704 6.83211 7.23811 4.32593 
6.888 7.28 4.4 6.944 7.32178 4.46667 7 7.34814 4.52593 
7.056 7.37975 4.57037 7.112 7.40425 4.59259 7.168 7.43586 4.6 
7.224 7.46222 4.6 7.28007 7.50404 4.60741 7.33746 7.54662 4.63704 
7.40286 7.57954 4.7037 9.85925 8.94914 3.10864 9.84032 9.01454 3.17531 
9.79785 9.07193 3.27654 9.74389 9.12789 3.39259 9.688 9.18181 3.4963 
9.632 9.22359 3.56296 9.576 9.23781 3.59259 10.2136 8.07479 3.3284 
10.1952 8.22449 3.04198 10.1763 8.27305 2.84198 10.1341 8.30218 2.69136 
10.0843 8.34608 2.6 10.0568 8.40011 2.59259 10.0843 8.456 2.66667 
10.1339 8.51189 2.81481 10.1734 8.56592 2.99259 10.1734 8.60978 3.16296 
10.1338 8.63822 3.28889 10.082 8.68208 3.36296 10.0381 8.73604 3.38025 
10.0083 8.79054 3.33827 9.95506 8.83714 3.22716 9.44781 9.408 3.23704 
9.464 9.352 3.31111 9.48019 9.296 3.43704 10.1414 8.18665 3.52346 
10.0807 8.2293 3.73827 10.024 8.25953 3.88395 9.968 8.25825 3.97037 
9.912 8.27575 4.02222 9.856 8.28603 4.07407 9.8 8.28789 4.12593 
9.744 8.288 4.17778 9.688 8.288 4.22222 9.632 8.28811 4.28148 
9.576 8.29008 4.35556 9.51996 8.30237 4.44444 9.46327 8.3327 4.51852 
9.40257 8.36365 4.57037 9.46269 9.18312 3.6963 9.39822 9.12148 3.8163 
9.52 8.736 4.1037 9.40811 8.792 4.26667 9.35423 8.84807 4.28 
9.31328 8.90531 4.22222 9.30471 8.96978 4.10519 9.42419 8.68 4.2963 
9.40807 8.62393 4.37037 9.39316 8.56654 4.42963 9.36068 8.50114 4.5037 
9.20681 9.07959 4.14222 9.13106 9.11291 4.28148 9.07215 9.12588 4.36148 
9.016 9.12778 4.4 8.96 9.12592 4.42963 8.904 9.11367 4.47407 
8.848 9.08414 4.52593 8.792 9.05975 4.57037 8.736 9.02814 4.59259 
8.68 9.00178 4.6 8.624 8.96 4.6 8.568 8.91811 4.6 
8.512 8.88978 4.60741 8.456 8.84592 4.62963 8.4 8.79189 4.67407 
8.344 8.736 4.72593 8.288 8.68 4.77037 8.232 8.624 4.79259 
8.176 8.568 4.8 8.12 8.512 4.8 8.064 8.456 4.8 
8.00811 8.4 4.8 7.95408 8.344 4.8 7.91022 8.288 4.8 
7.88178 8.232 4.8 7.83792 8.176 4.8 7.784 8.12 4.8 
7.73008 8.064 4.8 7.68633 8.008 4.8 7.65986 7.952 4.8 
7.62814 7.896 4.79259 7.60174 7.83993 4.77778 7.55938 7.78254 4.76296 
7.51475 7.71714 4.77037 8.07811 7.50411 4.6 8.04978 7.4503 4.6 
8.00592 7.41048 4.6 7.95189 7.40852 4.6 7.896 7.43608 4.6 
7.84 7.46222 4.6 7.784 7.50389 4.6 7.728 7.5437 4.6 
7.67196 7.55796 4.60741 7.61527 7.56281 4.63704 7.55457 7.58173 4.7037 
8.624 7.728 4.7037 8.27389 7.89589 4.63704 8.30222 7.94992 4.65185 
8.34608 7.99378 4.64444 8.40011 8.02211 4.62222 8.456 8.064 4.60741 
8.512 8.10578 4.6 8.568 8.13203 4.6 8.624 8.16178 4.6 
8.68 8.176 4.6 8.736 8.19011 4.6 8.792 8.21778 4.6 
8.848 8.23003 4.6 8.904 8.23397 4.6 8.96 8.24622 4.6 
9.016 8.27389 4.6 9.072 8.288 4.6 9.12807 8.30226 4.6 
9.18546 8.3327 4.6 9.25086 8.36365 4.6 
LINES 17 214
21 3 163 164 165 166 167 168 169 170 171 172 173 174 175 176 177 178 179 180 181 2 
3 4 162 0 
13 5 151 152 153 154 155 156 157 158 159 160 161 1 
36 6 117 118 119 120 121 122 123 124 125 126 127 128 129 130 131 132 133 134 135 136 137 138 139 140 141 142 143 144 145 146 147 148 149 150 1 
6 7 113 114 115 116 2 
6 7 109 110 111 112 6 
3 8 108 7 
4 9 106 107 6 
16 10 92 93 94 95 96 97 98 99 100 101 102 103 104 105 2 
5 12 89 90 91 9 
16 10 75 76 77 78 79 80 81 82 83 84 85 86 87 88 13 
3 10 74 11 
9 13 67 68 69 70 71 72 73 9 
20 14 49 50 51 52 53 54 55 56 57 58 59 60 61 62 63 64 65 66 1 
4 16 47 48 13 
13 17 36 37 38 39 40 41 42 43 44 45 46 15 
19 18 19 20 21 22 23 24 25 26 27 28 29 30 31 32 33 34 35 18 

POINT_DATA 182
SCALARS scalars double
LOOKUP_TABLE default
0.207586 0.222845 0.246334 0.162559 0.273576 0.0781803 0.207019 0.158394 0.159326 
0.152603 0.258503 0.138296 0.310327 0.260654 0.33826 0.224002 0.0344537 0.294005 
0.282187 0.230999 0.21795 0.207864 0.201938 0.225265 0.247202 0.264025 0.25936 
0.228424 0.20911 0.176328 0.223793 0.24373 0.206675 0.222793 0.243013 0.177217 
0.25048 0.259151 0.258527 0.217505 0.217643 0.261588 0.220313 0.232187 0.260504 
0.298538 0.316103 0.138472 0.190743 0.251731 0.191072 0.200845 0.258275 0.280171 
0.320009 0.289701 0.226296 0.165213 0.191677 0.183569 0.142788 0.143875 0.18938 
0.189198 0.217008 0.23367 0.228503 0.32151 0.296663 0.253683 0.124068 0.121375 
0.0717172 0.104053 0.298734 0.18767 0.190558 0.258703 0.282136 0.284761 0.259717 
0.194947 0.206409 0.210787 0.286223 0.244342 0.218107 0.210915 0.188311 0.296645 
0.284597 0.265988 0.244362 0.227406 0.21442 0.186528 0.230589 0.24856 0.261148 
0.225974 0.228428 0.259191 0.228583 0.203156 0.227435 0.251558 0.213846 0.217235 
0.178444 0.153492 0.167977 0.161259 0.220803 0.247256 0.170476 0.152909 0.268699 
0.288645 0.258183 0.218684 0.204772 0.204885 0.218474 0.214973 0.220347 0.207964 
0.197349 0.170411 0.170712 0.162907 0.151856 0.213932 0.174788 0.160423 0.210052 
0.22366 0.219332 0.214468 0.216051 0.221398 0.209016 0.173527 0.162443 0.162417 
0.149535 0.164529 0.160561 0.197661 0.180172 0.224837 0.245605 0.163019 0.226292 
0.25161 0.237231 0.219674 0.221229 0.206984 0.164275 0.194518 0.197443 0.186432 
0.307264 0.198278 0.226897 0.202649 0.19391 0.17079 0.201222 0.224634 0.212073 
0.212323 0.219047 0.202529 0.201438 0.165842 0.13566 0.153191 0.151054 0.147262 
0.167389 0.213956 
